# vtk DataFile Version 2.0
Generated by lpp.py
ASCII
DATASET POLYDATA
POINTS 1221 float
-0.897991 -0.96076 -0.963805
0.804783 -0.949618 -0.956987
-0.742798 -0.940919 -0.951485
-0.522502 -0.926952 -0.965047
-0.434948 -0.932791 -0.955688
0.234229 -0.946376 -0.952125
0.594928 -0.885756 -0.92237
-0.929282 -0.876585 -0.933021
-0.696557 -0.853086 -0.933409
-0.234602 -0.767585 -0.933472
-0.156669 -0.872271 -0.958993
-0.0195415 -0.826892 -0.951196
0.521216 -0.875256 -0.947189
-0.945029 -0.742624 -0.957505
-0.743312 -0.773377 -0.926548
-0.093373 -0.790187 -0.928008
0.136991 -0.836956 -0.96279
0.210051 -0.795886 -0.946323
0.679835 -0.808521 -0.922459
0.852226 -0.86715 -0.966519
-0.872147 -0.726728 -0.959013
-0.6171 -0.681405 -0.930332
-0.161897 -0.685603 -0.954796
-0.0288939 -0.706902 -0.921067
0.0622685 -0.74518 -0.944218
-0.833155 -0.644838 -0.95035
-0.345494 -0.647264 -0.944687
-0.0719608 -0.634487 -0.952611
0.579085 -0.648641 -0.938711
0.716628 -0.671726 -0.968144
-0.833036 -0.554385 -0.934335
-0.761835 -0.527313 -0.94232
-0.551935 -0.59262 -0.962969
-0.311934 -0.58073 -0.929459
0.0368389 -0.570157 -0.966334
-0.683219 -0.487534 -0.961901
-0.187155 -0.505738 -0.942786
0.690148 -0.485151 -0.965078
-0.922466 -0.386579 -0.950113
-0.791447 -0.43411 -0.958941
-0.51559 -0.467472 -0.954686
-0.358423 -0.46481 -0.952903
-0.269166 -0.377994 -0.960622
0.488004 -0.447186 -0.95606
-0.632331 -0.396728 -0.942447
-0.54889 -0.363071 -0.927895
-0.166442 -0.375291 -0.968259
0.597549 -0.350295 -0.937865
-0.839301 -0.281525 -0.923864
-0.765305 -0.286594 -0.95529
-0.649493 -0.261073 -0.941872
-0.551282 -0.286448 -0.956829
-0.364559 -0.319406 -0.918055
-0.15989 -0.277309 -0.950787
0.0520298 -0.26742 -0.96403
0.178635 -0.309964 -0.947666
0.337009 -0.331553 -0.960764
0.55706 -0.242204 -0.957784
-0.368154 -0.206161 -0.958765
-0.240558 -0.185448 -0.962594
0.517345 -0.175021 -0.91958
0.826324 -0.21533 -0.942214
-0.765032 -0.171253 -0.96271
-0.960406 -0.0541867 -0.927497
-0.540527 -0.0846065 -0.930781
0.261965 -0.0231733 -0.953667
0.520158 -0.0566035 -0.918186
0.640471 -0.0463406 -0.956957
-0.611937 0.00843414 -0.959048
-0.281248 0.0604385 -0.929175
-0.142922 0.0445016 -0.944494
0.758346 0.0332913 -0.956904
0.297819 0.0914096 -0.908542
-0.64237 0.202721 -0.931544
-0.560754 0.298568 -0.923767
-0.490344 0.233188 -0.926713
-0.211206 0.249032 -0.943487
-0.113685 0.184859 -0.887511
0.835945 0.252628 -0.929928
0.125794 0.409842 -0.952729
0.376916 0.397032 -0.909916
-0.0972218 0.458311 -0.928652
-0.72362 0.588292 -0.953754
0.662957 0.586765 -0.921481
-0.422118 0.656435 -0.91375
-0.302741 0.61403 -0.958302
-0.163004 0.711453 -0.956118
-0.936428 0.955295 -0.947298
0.152399 0.919266 -0.946678
0.297232 0.920135 -0.951007
-0.955139 -0.956259 -0.868616
-0.827016 -0.943139 -0.873173
0.249993 -0.936397 -0.866537
0.912998 -0.945076 -0.952552
-0.690304 -0.97142 -0.912577
-0.267928 -0.886416 -0.93618
-0.203485 -0.893515 -0.892757
-0.0926297 -0.886516 -0.918633
0.030472 -0.868115 -0.906101
0.158768 -0.942477 -0.955105
0.395762 -0.970086 -0.894078
0.523405 -0.931294 -0.873733
-0.794743 -0.839207 -0.933825
-0.396229 -0.850019 -0.895746
0.2795 -0.872283 -0.940558
0.381813 -0.879749 -0.852386
0.680154 -0.869706 -0.962851
0.738517 -0.861467 -0.924763
0.923573 -0.842345 -0.893482
-0.472565 -0.765972 -0.892051
0.241282 -0.815494 -0.845928
0.562007 -0.819773 -0.845203
0.745701 -0.789378 -0.867653
-0.932561 -0.690827 -0.880877
-0.812848 -0.687168 -0.861736
-0.0308014 -0.770811 -0.860502
0.131311 -0.667735 -0.932547
0.202866 -0.718656 -0.879796
0.508611 -0.696484 -0.909834
0.839813 -0.723587 -0.921441
-0.957534 -0.57985 -0.881819
-0.23143 -0.693894 -0.914748
0.414122 -0.659277 -0.874547
0.694649 -0.602375 -0.913058
-0.676623 -0.568817 -0.925094
0.051973 -0.526674 -0.85989
0.493039 -0.622378 -0.936363
0.85629 -0.578409 -0.897207
-0.898279 -0.508485 -0.912509
-0.49441 -0.525871 -0.898582
-0.0809424 -0.498018 -0.898866
-0.0414039 -0.550644 -0.939278
0.117387 -0.50771 -0.914029
0.459106 -0.518454 -0.972428
0.542319 -0.553284 -0.887685
0.807441 -0.503514 -0.88694
-0.821837 -0.43534 -0.867834
-0.730783 -0.449753 -0.873454
-0.604495 -0.479732 -0.957791
-0.123224 -0.444279 -0.945548
-0.0192036 -0.451137 -0.891207
0.142132 -0.409989 -0.912665
0.353799 -0.455941 -0.964672
0.600757 -0.44498 -0.882282
0.672139 -0.429673 -0.912216
-0.863906 -0.35258 -0.881178
-0.37876 -0.384353 -0.85349
-0.0844851 -0.354237 -0.963298
0.0751383 -0.430167 -0.881192
0.328007 -0.387959 -0.885217
0.470773 -0.41191 -0.902547
0.487994 -0.340201 -0.901855
-0.946825 -0.336837 -0.852631
-0.772507 -0.376737 -0.928376
-0.293003 -0.284054 -0.887363
-0.221504 -0.321368 -0.93671
0.452398 -0.28643 -0.932083
0.765352 -0.29195 -0.931937
-0.708161 -0.238278 -0.898354
-0.565674 -0.251985 -0.857916
-0.41568 -0.233233 -0.892074
-0.118441 -0.212962 -0.918436
0.0696917 -0.258832 -0.88719
0.294642 -0.223727 -0.894697
0.593082 -0.175349 -0.919526
0.687652 -0.239393 -0.910537
-0.825312 -0.143039 -0.910255
-0.658033 -0.154598 -0.92711
-0.623076 -0.111975 -0.848742
-0.485416 -0.188334 -0.916213
0.0473714 -0.137928 -0.971924
0.111622 -0.143696 -0.923947
0.33641 -0.147151 -0.881821
0.756965 -0.132181 -0.917251
0.830898 -0.197991 -0.864127
0.879358 -0.074735 -0.966575
-0.676966 0.00303927 -0.928229
-0.382605 -0.0229289 -0.892447
-0.0214533 -0.00141362 -0.954306
-0.766455 0.0697826 -0.966563
-0.447086 0.0324541 -0.872578
0.204492 0.0849394 -0.816235
0.416553 0.0593943 -0.909497
0.50341 0.0573628 -0.830611
0.85751 0.0556958 -0.899182
0.927593 0.073533 -0.908554
-0.849129 0.129553 -0.930043
-0.69893 0.0815363 -0.935854
-0.598479 0.116304 -0.954949
-0.389404 0.159321 -0.864197
0.353507 0.144896 -0.848865
-0.281363 0.206274 -0.866222
0.500853 0.24542 -0.924883
0.657072 0.21194 -0.866789
-0.435916 0.309498 -0.902721
0.342052 0.325102 -0.874523
-0.617438 0.412633 -0.901407
-0.514594 0.389881 -0.878087
0.861523 0.397814 -0.940411
-0.550751 0.472976 -0.901108
0.102824 0.508344 -0.881304
0.279958 0.528746 -0.892226
0.695021 0.511575 -0.920424
0.93518 0.551922 -0.916874
-0.819228 0.566333 -0.886834
-0.105726 0.674235 -0.935171
-0.856298 0.685973 -0.930957
0.834834 0.765698 -0.882843
-0.696659 0.798979 -0.852701
-0.478614 0.862555 -0.807679
-0.0239395 0.808632 -0.907524
-0.925867 0.883032 -0.927565
-0.943481 0.94504 -0.859359
-0.365873 0.936979 -0.91793
0.714336 0.969564 -0.906565
0.906954 0.969435 -0.869025
0.161873 -0.963362 -0.734878
-0.516178 -0.944994 -0.836124
0.0513313 -0.869763 -0.834761
0.909797 -0.908207 -0.811107
-0.476205 -0.857917 -0.828106
-0.0410842 -0.895785 -0.834005
0.114195 -0.839272 -0.875021
0.726227 -0.850061 -0.835029
-0.308225 -0.78266 -0.799566
-0.118604 -0.757038 -0.825911
-0.498985 -0.687074 -0.921564
-0.426808 -0.728322 -0.842117
0.219234 -0.678742 -0.790627
0.480639 -0.774824 -0.850803
0.943767 -0.760719 -0.849432
-0.363482 -0.609934 -0.853301
0.307304 -0.617091 -0.914168
0.46749 -0.642551 -0.786192
0.591305 -0.657466 -0.853344
0.883799 -0.667817 -0.822651
-0.932022 -0.631833 -0.81916
-0.79616 -0.572155 -0.860692
-0.401489 -0.541717 -0.840795
-0.158696 -0.587596 -0.866436
0.338722 -0.615836 -0.830734
0.765613 -0.525631 -0.828896
-0.961363 -0.499663 -0.842457
-0.700479 -0.513644 -0.818175
-0.554914 -0.509655 -0.810978
0.931258 -0.501532 -0.798146
0.155998 -0.48967 -0.854472
0.344512 -0.534293 -0.873885
0.422787 -0.49482 -0.884877
0.730578 -0.465445 -0.837483
0.807785 -0.425954 -0.894072
-0.799396 -0.354328 -0.798861
-0.608713 -0.316287 -0.864359
-0.174702 -0.382008 -0.87644
0.691434 -0.374135 -0.863443
0.781166 -0.380639 -0.834582
0.905231 -0.400159 -0.855979
-0.40264 -0.348636 -0.785602
-0.0353092 -0.28542 -0.917783
0.223998 -0.272418 -0.88446
0.509557 -0.291492 -0.821407
-0.810263 -0.287301 -0.865431
-0.18449 -0.207773 -0.876365
-0.0592416 -0.234234 -0.858258
0.386234 -0.229045 -0.839743
-0.309974 -0.122342 -0.862561
0.951209 -0.251356 -0.884851
0.95334 -0.105845 -0.871
-0.701953 -0.0661627 -0.867949
0.203981 -0.0953739 -0.772844
0.213218 -0.0531111 -0.84834
-0.222062 -0.0236595 -0.85061
-0.0903154 -0.0500565 -0.962563
0.717738 -0.016714 -0.777275
-0.900947 -0.0127801 -0.891808
-0.143003 0.084593 -0.867238
-0.893902 0.120471 -0.872897
-0.42161 0.127473 -0.79523
-0.897927 0.211977 -0.919765
-0.802758 0.193007 -0.819759
-0.635459 0.169355 -0.799236
-0.0587007 0.217208 -0.825457
-0.961843 0.240561 -0.825727
0.812934 0.325646 -0.789747
-0.876785 0.335646 -0.914991
-0.664381 0.277894 -0.8621
0.0551269 0.249863 -0.856558
0.327229 0.326687 -0.771733
-0.42666 0.442136 -0.87179
0.155242 0.375034 -0.799954
0.436137 0.471955 -0.870691
0.880224 0.480275 -0.81749
-0.864654 0.515682 -0.828159
-0.423559 0.522969 -0.768394
0.627111 0.516532 -0.83031
0.955575 0.418391 -0.839091
-0.492751 0.469615 -0.848333
-0.330992 0.55748 -0.837627
0.160812 0.699323 -0.910685
0.694438 0.655377 -0.809743
-0.46816 0.748419 -0.872555
-0.157274 0.76943 -0.84874
0.452528 0.755018 -0.920136
-0.757405 0.750185 -0.799041
0.0139558 0.862029 -0.873192
0.138836 0.88987 -0.807505
0.664207 0.9074 -0.810586
-0.716189 0.951601 -0.764299
-0.364584 0.930672 -0.806592
-0.380285 -0.962436 -0.783858
-0.234221 -0.958673 -0.762651
0.0788508 -0.961952 -0.755867
-0.893288 -0.921625 -0.789224
-0.701875 -0.889401 -0.763873
-0.641896 -0.855793 -0.745529
-0.417299 -0.856394 -0.747028
-0.308659 -0.92553 -0.723017
-0.0328717 -0.92883 -0.761193
-0.957103 -0.856784 -0.75126
-0.543743 -0.774327 -0.789441
-0.479694 -0.81763 -0.733453
-0.22216 -0.834084 -0.81752
-0.144925 -0.824141 -0.815898
0.230344 -0.850444 -0.777615
-0.877114 -0.797163 -0.793258
-0.645257 -0.763349 -0.723124
-0.223791 -0.76173 -0.763674
0.0258582 -0.87707 -0.765152
0.175376 -0.766853 -0.796112
0.467584 -0.799442 -0.751055
-0.934828 -0.718803 -0.777287
0.10833 -0.726108 -0.797565
0.259135 -0.774991 -0.782635
0.672216 -0.723239 -0.775274
0.854272 -0.79028 -0.754261
-0.825905 -0.577827 -0.711358
-0.713253 -0.588288 -0.739698
-0.214282 -0.594802 -0.813696
0.187046 -0.572208 -0.789475
0.272349 -0.571487 -0.825178
[...]
POINT_DATA 1221
VECTORS i float
0.0 0.0 0.0
0.0 0.0 0.0
0.0 0.0 0.0
0.0 0.0 0.0
0.0 0.0 0.0
0.0 0.0 0.0
0.0 0.0 0.0
0.0 0.0 0.0
0.0 0.0 0.0
0.0 0.0 0.0
0.0 0.0 0.0
0.0 0.0 0.0
0.0 0.0 0.0
0.0 0.0 0.0
0.0 0.0 0.0
0.0 0.0 0.0
0.0 0.0 0.0
0.0 0.0 0.0
0.0 0.0 0.0
0.0 0.0 0.0
0.0 0.0 0.0
0.0 0.0 0.0
0.0 0.0 0.0
0.0 0.0 0.0
0.0 0.0 0.0
0.0 0.0 0.0
0.0 0.0 0.0
0.0 0.0 0.0
0.0 0.0 0.0
0.0 0.0 0.0
0.0 0.0 0.0
0.0 0.0 0.0
0.0 0.0 0.0
0.0 0.0 0.0
0.0 0.0 0.0
0.0 0.0 0.0
0.0 0.0 0.0
0.0 0.0 0.0
0.0 0.0 0.0
0.0 0.0 0.0
0.0 0.0 0.0
0.0 0.0 0.0
0.0 0.0 0.0
0.0 0.0 0.0
0.0 0.0 0.0
0.0 0.0 0.0
0.0 0.0 0.0
0.0 0.0 0.0
0.0 0.0 0.0
0.0 0.0 0.0
0.0 0.0 0.0
0.0 0.0 0.0
0.0 0.0 0.0
0.0 0.0 0.0
0.0 0.0 0.0
0.0 0.0 0.0
0.0 0.0 0.0
0.0 0.0 0.0
0.0 0.0 0.0
0.0 0.0 0.0
0.0 0.0 0.0
0.0 0.0 0.0
0.0 0.0 0.0
0.0 0.0 0.0
0.0 0.0 0.0
0.0 0.0 0.0
0.0 0.0 0.0
0.0 0.0 0.0
0.0 0.0 0.0
0.0 0.0 0.0
0.0 0.0 0.0
0.0 0.0 0.0
0.0 0.0 0.0
0.0 0.0 0.0
0.0 0.0 0.0
0.0 0.0 0.0
0.0 0.0 0.0
0.0 0.0 0.0
0.0 0.0 0.0
0.0 0.0 0.0
0.0 0.0 0.0
0.0 0.0 0.0
0.0 0.0 0.0
0.0 0.0 0.0
0.0 0.0 0.0
0.0 0.0 0.0
0.0 0.0 0.0
0.0 0.0 0.0
0.0 0.0 0.0
0.0 0.0 0.0
0.0 0.0 0.0
0.0 0.0 0.0
0.0 0.0 0.0
0.0 0.0 0.0
0.0 0.0 0.0
0.0 0.0 0.0
0.0 0.0 0.0
0.0 0.0 0.0
0.0 0.0 0.0
0.0 0.0 0.0
0.0 0.0 0.0
0.0 0.0 0.0
0.0 0.0 0.0
0.0 0.0 0.0
0.0 0.0 0.0
0.0 0.0 0.0
0.0 0.0 0.0
0.0 0.0 0.0
0.0 0.0 0.0
0.0 0.0 0.0
0.0 0.0 0.0
0.0 0.0 0.0
0.0 0.0 0.0
0.0 0.0 0.0
0.0 0.0 0.0
0.0 0.0 0.0
0.0 0.0 0.0
0.0 0.0 0.0
0.0 0.0 0.0
0.0 0.0 0.0
0.0 0.0 0.0
0.0 0.0 0.0
0.0 0.0 0.0
0.0 0.0 0.0
0.0 0.0 0.0
0.0 0.0 0.0
0.0 0.0 0.0
0.0 0.0 0.0
0.0 0.0 0.0
0.0 0.0 0.0
0.0 0.0 0.0
0.0 0.0 0.0
0.0 0.0 0.0
0.0 0.0 0.0
0.0 0.0 0.0
0.0 0.0 0.0
0.0 0.0 0.0
0.0 0.0 0.0
0.0 0.0 0.0
0.0 0.0 0.0
0.0 0.0 0.0
0.0 0.0 0.0
0.0 0.0 0.0
0.0 0.0 0.0
0.0 0.0 0.0
0.0 0.0 0.0
0.0 0.0 0.0
0.0 0.0 0.0
0.0 0.0 0.0
0.0 0.0 0.0
0.0 0.0 0.0
0.0 0.0 0.0
0.0 0.0 0.0
0.0 0.0 0.0
0.0 0.0 0.0
0.0 0.0 0.0
0.0 0.0 0.0
0.0 0.0 0.0
0.0 0.0 0.0
0.0 0.0 0.0
0.0 0.0 0.0
0.0 0.0 0.0
0.0 0.0 0.0
0.0 0.0 0.0
0.0 0.0 0.0
0.0 0.0 0.0
0.0 0.0 0.0
0.0 0.0 0.0
0.0 0.0 0.0
0.0 0.0 0.0
0.0 0.0 0.0
0.0 0.0 0.0
0.0 0.0 0.0
0.0 0.0 0.0
0.0 0.0 0.0
0.0 0.0 0.0
0.0 0.0 0.0
0.0 0.0 0.0
0.0 0.0 0.0
0.0 0.0 0.0
0.0 0.0 0.0
0.0 0.0 0.0
0.0 0.0 0.0
0.0 0.0 0.0
0.0 0.0 0.0
0.0 0.0 0.0
0.0 0.0 0.0
0.0 0.0 0.0
0.0 0.0 0.0
0.0 0.0 0.0
0.0 0.0 0.0
0.0 0.0 0.0
0.0 0.0 0.0
0.0 0.0 0.0
0.0 0.0 0.0
0.0 0.0 0.0
0.0 0.0 0.0
0.0 0.0 0.0
0.0 0.0 0.0
0.0 0.0 0.0
0.0 0.0 0.0
0.0 0.0 0.0
0.0 0.0 0.0
0.0 0.0 0.0
0.0 0.0 0.0
0.0 0.0 0.0
0.0 0.0 0.0
0.0 0.0 0.0
0.0 0.0 0.0
0.0 0.0 0.0
0.0 0.0 0.0
0.0 0.0 0.0
0.0 0.0 0.0
0.0 0.0 0.0
0.0 0.0 0.0
0.0 0.0 0.0
0.0 0.0 0.0
0.0 0.0 0.0
0.0 0.0 0.0
0.0 0.0 0.0
0.0 0.0 0.0
0.0 0.0 0.0
0.0 0.0 0.0
0.0 0.0 0.0
0.0 0.0 0.0
0.0 0.0 0.0
0.0 0.0 0.0
0.0 0.0 0.0
0.0 0.0 0.0
0.0 0.0 0.0
0.0 0.0 0.0
0.0 0.0 0.0
0.0 0.0 0.0
0.0 0.0 0.0
0.0 0.0 0.0
0.0 0.0 0.0
0.0 0.0 0.0
0.0 0.0 0.0
0.0 0.0 0.0
0.0 0.0 0.0
0.0 0.0 0.0
0.0 0.0 0.0
0.0 0.0 0.0
0.0 0.0 0.0
0.0 0.0 0.0
0.0 0.0 0.0
0.0 0.0 0.0
0.0 0.0 0.0
0.0 0.0 0.0
0.0 0.0 0.0
0.0 0.0 0.0
0.0 0.0 0.0
0.0 0.0 0.0
0.0 0.0 0.0
0.0 0.0 0.0
0.0 0.0 0.0
0.0 0.0 0.0
0.0 0.0 0.0
0.0 0.0 0.0
0.0 0.0 0.0
0.0 0.0 0.0
0.0 0.0 0.0
0.0 0.0 0.0
0.0 0.0 0.0
0.0 0.0 0.0
0.0 0.0 0.0
0.0 0.0 0.0
0.0 0.0 0.0
0.0 0.0 0.0
0.0 0.0 0.0
0.0 0.0 0.0
0.0 0.0 0.0
0.0 0.0 0.0
0.0 0.0 0.0
0.0 0.0 0.0
0.0 0.0 0.0
0.0 0.0 0.0
0.0 0.0 0.0
0.0 0.0 0.0
0.0 0.0 0.0
0.0 0.0 0.0
0.0 0.0 0.0
0.0 0.0 0.0
0.0 0.0 0.0
0.0 0.0 0.0
0.0 0.0 0.0
0.0 0.0 0.0
0.0 0.0 0.0
0.0 0.0 0.0
0.0 0.0 0.0
0.0 0.0 0.0
0.0 0.0 0.0
0.0 0.0 0.0
0.0 0.0 0.0
0.0 0.0 0.0
0.0 0.0 0.0
0.0 0.0 0.0
0.0 0.0 0.0
0.0 0.0 0.0
0.0 0.0 0.0
0.0 0.0 0.0
0.0 0.0 0.0
0.0 0.0 0.0
0.0 0.0 0.0
0.0 0.0 0.0
0.0 0.0 0.0
0.0 0.0 0.0
0.0 0.0 0.0
0.0 0.0 0.0
0.0 0.0 0.0
0.0 0.0 0.0
0.0 0.0 0.0
0.0 0.0 0.0
0.0 0.0 0.0
0.0 0.0 0.0
0.0 0.0 0.0
0.0 0.0 0.0
0.0 0.0 0.0
0.0 0.0 0.0
0.0 0.0 0.0
0.0 0.0 0.0
0.0 0.0 0.0
0.0 0.0 0.0
0.0 0.0 0.0
0.0 0.0 0.0
0.0 0.0 0.0
0.0 0.0 0.0
0.0 0.0 0.0
0.0 0.0 0.0
0.0 0.0 0.0
0.0 0.0 0.0
0.0 0.0 0.0
0.0 0.0 0.0
0.0 0.0 0.0
0.0 0.0 0.0
0.0 0.0 0.0
0.0 0.0 0.0
0.0 0.0 0.0
0.0 0.0 0.0
0.0 0.0 0.0
0.0 0.0 0.0
0.0 0.0 0.0
0.0 0.0 0.0
0.0 0.0 0.0
0.0 0.0 0.0
0.0 0.0 0.0
0.0 0.0 0.0
0.0 0.0 0.0
0.0 0.0 0.0
0.0 0.0 0.0
0.0 0.0 0.0
0.0 0.0 0.0
0.0 0.0 0.0
0.0 0.0 0.0
0.0 0.0 0.0
0.0 0.0 0.0
0.0 0.0 0.0
0.0 0.0 0.0
0.0 0.0 0.0
0.0 0.0 0.0
0.0 0.0 0.0
0.0 0.0 0.0
0.0 0.0 0.0
0.0 0.0 0.0
0.0 0.0 0.0
0.0 0.0 0.0
0.0 0.0 0.0
0.0 0.0 0.0
0.0 0.0 0.0
0.0 0.0 0.0
0.0 0.0 0.0
0.0 0.0 0.0
0.0 0.0 0.0
0.0 0.0 0.0
0.0 0.0 0.0
0.0 0.0 0.0
0.0 0.0 0.0
0.0 0.0 0.0
0.0 0.0 0.0
0.0 0.0 0.0
0.0 0.0 0.0
0.0 0.0 0.0
0.0 0.0 0.0
0.0 0.0 0.0
0.0 0.0 0.0
0.0 0.0 0.0
0.0 0.0 0.0
0.0 0.0 0.0
0.0 0.0 0.0
0.0 0.0 0.0
0.0 0.0 0.0
0.0 0.0 0.0
0.0 0.0 0.0
0.0 0.0 0.0
0.0 0.0 0.0
0.0 0.0 0.0
0.0 0.0 0.0
0.0 0.0 0.0
0.0 0.0 0.0
0.0 0.0 0.0
0.0 0.0 0.0
0.0 0.0 0.0
0.0 0.0 0.0
0.0 0.0 0.0
0.0 0.0 0.0
0.0 0.0 0.0
0.0 0.0 0.0
0.0 0.0 0.0
0.0 0.0 0.0
0.0 0.0 0.0
0.0 0.0 0.0
0.0 0.0 0.0
0.0 0.0 0.0
0.0 0.0 0.0
0.0 0.0 0.0
0.0 0.0 0.0
0.0 0.0 0.0
0.0 0.0 0.0
0.0 0.0 0.0
0.0 0.0 0.0
0.0 0.0 0.0
0.0 0.0 0.0
0.0 0.0 0.0
0.0 0.0 0.0
0.0 0.0 0.0
0.0 0.0 0.0
0.0 0.0 0.0
0.0 0.0 0.0
0.0 0.0 0.0
0.0 0.0 0.0
0.0 0.0 0.0
0.0 0.0 0.0
0.0 0.0 0.0
0.0 0.0 0.0
0.0 0.0 0.0
0.0 0.0 0.0
0.0 0.0 0.0
0.0 0.0 0.0
0.0 0.0 0.0
0.0 0.0 0.0
0.0 0.0 0.0
0.0 0.0 0.0
0.0 0.0 0.0
0.0 0.0 0.0
0.0 0.0 0.0
0.0 0.0 0.0
0.0 0.0 0.0
0.0 0.0 0.0
0.0 0.0 0.0
0.0 0.0 0.0
0.0 0.0 0.0
0.0 0.0 0.0
0.0 0.0 0.0
0.0 0.0 0.0
0.0 0.0 0.0
0.0 0.0 0.0
0.0 0.0 0.0
0.0 0.0 0.0
0.0 0.0 0.0
0.0 0.0 0.0
0.0 0.0 0.0
0.0 0.0 0.0
0.0 0.0 0.0
0.0 0.0 0.0
0.0 0.0 0.0
0.0 0.0 0.0
0.0 0.0 0.0
0.0 0.0 0.0
0.0 0.0 0.0
0.0 0.0 0.0
0.0 0.0 0.0
0.0 0.0 0.0
0.0 0.0 0.0
0.0 0.0 0.0
0.0 0.0 0.0
0.0 0.0 0.0
0.0 0.0 0.0
0.0 0.0 0.0
0.0 0.0 0.0
0.0 0.0 0.0
0.0 0.0 0.0
0.0 0.0 0.0
0.0 0.0 0.0
0.0 0.0 0.0
0.0 0.0 0.0
0.0 0.0 0.0
0.0 0.0 0.0
0.0 0.0 0.0
0.0 0.0 0.0
0.0 0.0 0.0
0.0 0.0 0.0
0.0 0.0 0.0
0.0 0.0 0.0
0.0 0.0 0.0
0.0 0.0 0.0
0.0 0.0 0.0
0.0 0.0 0.0
0.0 0.0 0.0
0.0 0.0 0.0
0.0 0.0 0.0
0.0 0.0 0.0
0.0 0.0 0.0
0.0 0.0 0.0
0.0 0.0 0.0
0.0 0.0 0.0
0.0 0.0 0.0
0.0 0.0 0.0
0.0 0.0 0.0
0.0 0.0 0.0
0.0 0.0 0.0
0.0 0.0 0.0
0.0 0.0 0.0
0.0 0.0 0.0
0.0 0.0 0.0
0.0 0.0 0.0
0.0 0.0 0.0
0.0 0.0 0.0
0.0 0.0 0.0
0.0 0.0 0.0
0.0 0.0 0.0
0.0 0.0 0.0
0.0 0.0 0.0
0.0 0.0 0.0
0.0 0.0 0.0
0.0 0.0 0.0
0.0 0.0 0.0
0.0 0.0 0.0
0.0 0.0 0.0
0.0 0.0 0.0
0.0 0.0 0.0
0.0 0.0 0.0
0.0 0.0 0.0
0.0 0.0 0.0
0.0 0.0 0.0
0.0 0.0 0.0
0.0 0.0 0.0
0.0 0.0 0.0
0.0 0.0 0.0
0.0 0.0 0.0
0.0 0.0 0.0
0.0 0.0 0.0
0.0 0.0 0.0
0.0 0.0 0.0
0.0 0.0 0.0
0.0 0.0 0.0
0.0 0.0 0.0
0.0 0.0 0.0
0.0 0.0 0.0
0.0 0.0 0.0
0.0 0.0 0.0
0.0 0.0 0.0
0.0 0.0 0.0
0.0 0.0 0.0
0.0 0.0 0.0
0.0 0.0 0.0
0.0 0.0 0.0
0.0 0.0 0.0
0.0 0.0 0.0
0.0 0.0 0.0
0.0 0.0 0.0
0.0 0.0 0.0
0.0 0.0 0.0
0.0 0.0 0.0
0.0 0.0 0.0
0.0 0.0 0.0
0.0 0.0 0.0
0.0 0.0 0.0
0.0 0.0 0.0
0.0 0.0 0.0
0.0 0.0 0.0
0.0 0.0 0.0
0.0 0.0 0.0
0.0 0.0 0.0
0.0 0.0 0.0
0.0 0.0 0.0
0.0 0.0 0.0
0.0 0.0 0.0
0.0 0.0 0.0
0.0 0.0 0.0
0.0 0.0 0.0
0.0 0.0 0.0
0.0 0.0 0.0
0.0 0.0 0.0
0.0 0.0 0.0
0.0 0.0 0.0
0.0 0.0 0.0
0.0 0.0 0.0
0.0 0.0 0.0
0.0 0.0 0.0
0.0 0.0 0.0
0.0 0.0 0.0
0.0 0.0 0.0
0.0 0.0 0.0
0.0 0.0 0.0
0.0 0.0 0.0
0.0 0.0 0.0
0.0 0.0 0.0
0.0 0.0 0.0
0.0 0.0 0.0
0.0 0.0 0.0
0.0 0.0 0.0
0.0 0.0 0.0
0.0 0.0 0.0
0.0 0.0 0.0
0.0 0.0 0.0
0.0 0.0 0.0
0.0 0.0 0.0
0.0 0.0 0.0
0.0 0.0 0.0
0.0 0.0 0.0
0.0 0.0 0.0
0.0 0.0 0.0
0.0 0.0 0.0
0.0 0.0 0.0
0.0 0.0 0.0
0.0 0.0 0.0
0.0 0.0 0.0
0.0 0.0 0.0
0.0 0.0 0.0
0.0 0.0 0.0
0.0 0.0 0.0
0.0 0.0 0.0
0.0 0.0 0.0
0.0 0.0 0.0
0.0 0.0 0.0
0.0 0.0 0.0
0.0 0.0 0.0
0.0 0.0 0.0
0.0 0.0 0.0
0.0 0.0 0.0
0.0 0.0 0.0
0.0 0.0 0.0
0.0 0.0 0.0
0.0 0.0 0.0
0.0 0.0 0.0
0.0 0.0 0.0
0.0 0.0 0.0
0.0 0.0 0.0
0.0 0.0 0.0
0.0 0.0 0.0
0.0 0.0 0.0
0.0 0.0 0.0
0.0 0.0 0.0
0.0 0.0 0.0
0.0 0.0 0.0
0.0 0.0 0.0
0.0 0.0 0.0
0.0 0.0 0.0
0.0 0.0 0.0
0.0 0.0 0.0
0.0 0.0 0.0
0.0 0.0 0.0
0.0 0.0 0.0
0.0 0.0 0.0
0.0 0.0 0.0
0.0 0.0 0.0
0.0 0.0 0.0
0.0 0.0 0.0
0.0 0.0 0.0
0.0 0.0 0.0
0.0 0.0 0.0
0.0 0.0 0.0
0.0 0.0 0.0
0.0 0.0 0.0
0.0 0.0 0.0
0.0 0.0 0.0
0.0 0.0 0.0
0.0 0.0 0.0
0.0 0.0 0.0
0.0 0.0 0.0
0.0 0.0 0.0
0.0 0.0 0.0
0.0 0.0 0.0
0.0 0.0 0.0
0.0 0.0 0.0
0.0 0.0 0.0
0.0 0.0 0.0
0.0 0.0 0.0
0.0 0.0 0.0
0.0 0.0 0.0
0.0 0.0 0.0
0.0 0.0 0.0
0.0 0.0 0.0
0.0 0.0 0.0
0.0 0.0 0.0
0.0 0.0 0.0
0.0 0.0 0.0
0.0 0.0 0.0
0.0 0.0 0.0
0.0 0.0 0.0
0.0 0.0 0.0
0.0 0.0 0.0
0.0 0.0 0.0
0.0 0.0 0.0
0.0 0.0 0.0
0.0 0.0 0.0
0.0 0.0 0.0
0.0 0.0 0.0
0.0 0.0 0.0
0.0 0.0 0.0
0.0 0.0 0.0
0.0 0.0 0.0
0.0 0.0 0.0
0.0 0.0 0.0
0.0 0.0 0.0
0.0 0.0 0.0
0.0 0.0 0.0
0.0 0.0 0.0
0.0 0.0 0.0
0.0 0.0 0.0
0.0 0.0 0.0
0.0 0.0 0.0
0.0 0.0 0.0
0.0 0.0 0.0
0.0 0.0 0.0
0.0 0.0 0.0
0.0 0.0 0.0
0.0 0.0 0.0
0.0 0.0 0.0
0.0 0.0 0.0
0.0 0.0 0.0
0.0 0.0 0.0
0.0 0.0 0.0
0.0 0.0 0.0
0.0 0.0 0.0
0.0 0.0 0.0
0.0 0.0 0.0
0.0 0.0 0.0
0.0 0.0 0.0
0.0 0.0 0.0
0.0 0.0 0.0
0.0 0.0 0.0
0.0 0.0 0.0
0.0 0.0 0.0
0.0 0.0 0.0
0.0 0.0 0.0
0.0 0.0 0.0
0.0 0.0 0.0
0.0 0.0 0.0
0.0 0.0 0.0
0.0 0.0 0.0
0.0 0.0 0.0
0.0 0.0 0.0
0.0 0.0 0.0
0.0 0.0 0.0
0.0 0.0 0.0
0.0 0.0 0.0
0.0 0.0 0.0
0.0 0.0 0.0
0.0 0.0 0.0
0.0 0.0 0.0
0.0 0.0 0.0
0.0 0.0 0.0
0.0 0.0 0.0
0.0 0.0 0.0
0.0 0.0 0.0
0.0 0.0 0.0
0.0 0.0 0.0
0.0 0.0 0.0
0.0 0.0 0.0
0.0 0.0 0.0
0.0 0.0 0.0
0.0 0.0 0.0
0.0 0.0 0.0
0.0 0.0 0.0
0.0 0.0 0.0
0.0 0.0 0.0
0.0 0.0 0.0
0.0 0.0 0.0
0.0 0.0 0.0
0.0 0.0 0.0
0.0 0.0 0.0
0.0 0.0 0.0
0.0 0.0 0.0
0.0 0.0 0.0
0.0 0.0 0.0
0.0 0.0 0.0
0.0 0.0 0.0
0.0 0.0 0.0
0.0 0.0 0.0
0.0 0.0 0.0
0.0 0.0 0.0
0.0 0.0 0.0
0.0 0.0 0.0
0.0 0.0 0.0
0.0 0.0 0.0
0.0 0.0 0.0
0.0 0.0 0.0
0.0 0.0 0.0
0.0 0.0 0.0
0.0 0.0 0.0
0.0 0.0 0.0
0.0 0.0 0.0
0.0 0.0 0.0
0.0 0.0 0.0
0.0 0.0 0.0
0.0 0.0 0.0
0.0 0.0 0.0
0.0 0.0 0.0
0.0 0.0 0.0
0.0 0.0 0.0
0.0 0.0 0.0
0.0 0.0 0.0
0.0 0.0 0.0
0.0 0.0 0.0
0.0 0.0 0.0
0.0 0.0 0.0
0.0 0.0 0.0
0.0 0.0 0.0
0.0 0.0 0.0
0.0 0.0 0.0
0.0 0.0 0.0
0.0 0.0 0.0
0.0 0.0 0.0
0.0 0.0 0.0
0.0 0.0 0.0
0.0 0.0 0.0
0.0 0.0 0.0
0.0 0.0 0.0
0.0 0.0 0.0
0.0 0.0 0.0
0.0 0.0 0.0
0.0 0.0 0.0
0.0 0.0 0.0
0.0 0.0 0.0
0.0 0.0 0.0
0.0 0.0 0.0
0.0 0.0 0.0
0.0 0.0 0.0
0.0 0.0 0.0
0.0 0.0 0.0
0.0 0.0 0.0
0.0 0.0 0.0
0.0 0.0 0.0
0.0 0.0 0.0
0.0 0.0 0.0
0.0 0.0 0.0
0.0 0.0 0.0
0.0 0.0 0.0
0.0 0.0 0.0
0.0 0.0 0.0
0.0 0.0 0.0
0.0 0.0 0.0
0.0 0.0 0.0
0.0 0.0 0.0
0.0 0.0 0.0
0.0 0.0 0.0
0.0 0.0 0.0
0.0 0.0 0.0
0.0 0.0 0.0
0.0 0.0 0.0
0.0 0.0 0.0
0.0 0.0 0.0
0.0 0.0 0.0
0.0 0.0 0.0
0.0 0.0 0.0
0.0 0.0 0.0
0.0 0.0 0.0
0.0 0.0 0.0
0.0 0.0 0.0
0.0 0.0 0.0
0.0 0.0 0.0
0.0 0.0 0.0
0.0 0.0 0.0
0.0 0.0 0.0
0.0 0.0 0.0
0.0 0.0 0.0
0.0 0.0 0.0
0.0 0.0 0.0
0.0 0.0 0.0
0.0 0.0 0.0
0.0 0.0 0.0
0.0 0.0 0.0
0.0 0.0 0.0
0.0 0.0 0.0
0.0 0.0 0.0
0.0 0.0 0.0
0.0 0.0 0.0
0.0 0.0 0.0
0.0 0.0 0.0
0.0 0.0 0.0
0.0 0.0 0.0
0.0 0.0 0.0
0.0 0.0 0.0
0.0 0.0 0.0
0.0 0.0 0.0
0.0 0.0 0.0
0.0 0.0 0.0
0.0 0.0 0.0
0.0 0.0 0.0
0.0 0.0 0.0
0.0 0.0 0.0
0.0 0.0 0.0
0.0 0.0 0.0
0.0 0.0 0.0
0.0 0.0 0.0
0.0 0.0 0.0
0.0 0.0 0.0
0.0 0.0 0.0
0.0 0.0 0.0
0.0 0.0 0.0
0.0 0.0 0.0
0.0 0.0 0.0
0.0 0.0 0.0
0.0 0.0 0.0
0.0 0.0 0.0
0.0 0.0 0.0
0.0 0.0 0.0
0.0 0.0 0.0
0.0 0.0 0.0
0.0 0.0 0.0
0.0 0.0 0.0
0.0 0.0 0.0
0.0 0.0 0.0
0.0 0.0 0.0
0.0 0.0 0.0
0.0 0.0 0.0
0.0 0.0 0.0
0.0 0.0 0.0
0.0 0.0 0.0
0.0 0.0 0.0
0.0 0.0 0.0
0.0 0.0 0.0
0.0 0.0 0.0
0.0 0.0 0.0
0.0 0.0 0.0
0.0 0.0 0.0
0.0 0.0 0.0
0.0 0.0 0.0
0.0 0.0 0.0
0.0 0.0 0.0
0.0 0.0 0.0
0.0 0.0 0.0
0.0 0.0 0.0
0.0 0.0 0.0
0.0 0.0 0.0
0.0 0.0 0.0
0.0 0.0 0.0
0.0 0.0 0.0
0.0 0.0 0.0
0.0 0.0 0.0
0.0 0.0 0.0
0.0 0.0 0.0
0.0 0.0 0.0
0.0 0.0 0.0
0.0 0.0 0.0
0.0 0.0 0.0
0.0 0.0 0.0
0.0 0.0 0.0
0.0 0.0 0.0
0.0 0.0 0.0
0.0 0.0 0.0
0.0 0.0 0.0
0.0 0.0 0.0
0.0 0.0 0.0
0.0 0.0 0.0
0.0 0.0 0.0
0.0 0.0 0.0
0.0 0.0 0.0
0.0 0.0 0.0
0.0 0.0 0.0
0.0 0.0 0.0
0.0 0.0 0.0
0.0 0.0 0.0
0.0 0.0 0.0
0.0 0.0 0.0
0.0 0.0 0.0
0.0 0.0 0.0
0.0 0.0 0.0
0.0 0.0 0.0
0.0 0.0 0.0
0.0 0.0 0.0
0.0 0.0 0.0
0.0 0.0 0.0
0.0 0.0 0.0
0.0 0.0 0.0
0.0 0.0 0.0
0.0 0.0 0.0
0.0 0.0 0.0
0.0 0.0 0.0
0.0 0.0 0.0
0.0 0.0 0.0
0.0 0.0 0.0
0.0 0.0 0.0
0.0 0.0 0.0
0.0 0.0 0.0
0.0 0.0 0.0
0.0 0.0 0.0
0.0 0.0 0.0
0.0 0.0 0.0
0.0 0.0 0.0
0.0 0.0 0.0
0.0 0.0 0.0
0.0 0.0 0.0
0.0 0.0 0.0
0.0 0.0 0.0
0.0 0.0 0.0
0.0 0.0 0.0
0.0 0.0 0.0
0.0 0.0 0.0
0.0 0.0 0.0
0.0 0.0 0.0
0.0 0.0 0.0
0.0 0.0 0.0
0.0 0.0 0.0
0.0 0.0 0.0
0.0 0.0 0.0
0.0 0.0 0.0
0.0 0.0 0.0
0.0 0.0 0.0
0.0 0.0 0.0
0.0 0.0 0.0
0.0 0.0 0.0
0.0 0.0 0.0
0.0 0.0 0.0
0.0 0.0 0.0
0.0 0.0 0.0
0.0 0.0 0.0
0.0 0.0 0.0
0.0 0.0 0.0
0.0 0.0 0.0
0.0 0.0 0.0
0.0 0.0 0.0
0.0 0.0 0.0
0.0 0.0 0.0
0.0 0.0 0.0
0.0 0.0 0.0
0.0 0.0 0.0
0.0 0.0 0.0
0.0 0.0 0.0
0.0 0.0 0.0
0.0 0.0 0.0
0.0 0.0 0.0
0.0 0.0 0.0
0.0 0.0 0.0
0.0 0.0 0.0
0.0 0.0 0.0
0.0 0.0 0.0
0.0 0.0 0.0
0.0 0.0 0.0
0.0 0.0 0.0
0.0 0.0 0.0
0.0 0.0 0.0
0.0 0.0 0.0
0.0 0.0 0.0
0.0 0.0 0.0
0.0 0.0 0.0
0.0 0.0 0.0
0.0 0.0 0.0
0.0 0.0 0.0
0.0 0.0 0.0
0.0 0.0 0.0
0.0 0.0 0.0
0.0 0.0 0.0
0.0 0.0 0.0
0.0 0.0 0.0
0.0 0.0 0.0
0.0 0.0 0.0
0.0 0.0 0.0
0.0 0.0 0.0
0.0 0.0 0.0
0.0 0.0 0.0
0.0 0.0 0.0
0.0 0.0 0.0
0.0 0.0 0.0
0.0 0.0 0.0
0.0 0.0 0.0
0.0 0.0 0.0
0.0 0.0 0.0
0.0 0.0 0.0
0.0 0.0 0.0
0.0 0.0 0.0
0.0 0.0 0.0
0.0 0.0 0.0
0.0 0.0 0.0
0.0 0.0 0.0
0.0 0.0 0.0
0.0 0.0 0.0
0.0 0.0 0.0
0.0 0.0 0.0
0.0 0.0 0.0
0.0 0.0 0.0
0.0 0.0 0.0
0.0 0.0 0.0
0.0 0.0 0.0
0.0 0.0 0.0
0.0 0.0 0.0
0.0 0.0 0.0
0.0 0.0 0.0
0.0 0.0 0.0
0.0 0.0 0.0
0.0 0.0 0.0
0.0 0.0 0.0
0.0 0.0 0.0
0.0 0.0 0.0
0.0 0.0 0.0
0.0 0.0 0.0
0.0 0.0 0.0
0.0 0.0 0.0
0.0 0.0 0.0
0.0 0.0 0.0
0.0 0.0 0.0
0.0 0.0 0.0
0.0 0.0 0.0
0.0 0.0 0.0
0.0 0.0 0.0
0.0 0.0 0.0
0.0 0.0 0.0
0.0 0.0 0.0
0.0 0.0 0.0
0.0 0.0 0.0
0.0 0.0 0.0
0.0 0.0 0.0
0.0 0.0 0.0
0.0 0.0 0.0
0.0 0.0 0.0
0.0 0.0 0.0
0.0 0.0 0.0
0.0 0.0 0.0
0.0 0.0 0.0
0.0 0.0 0.0
0.0 0.0 0.0
0.0 0.0 0.0
0.0 0.0 0.0
0.0 0.0 0.0
0.0 0.0 0.0
0.0 0.0 0.0
0.0 0.0 0.0
0.0 0.0 0.0
0.0 0.0 0.0
0.0 0.0 0.0
0.0 0.0 0.0
0.0 0.0 0.0
0.0 0.0 0.0
0.0 0.0 0.0
0.0 0.0 0.0
0.0 0.0 0.0
0.0 0.0 0.0
0.0 0.0 0.0
0.0 0.0 0.0
0.0 0.0 0.0
0.0 0.0 0.0
0.0 0.0 0.0
0.0 0.0 0.0
0.0 0.0 0.0
0.0 0.0 0.0
0.0 0.0 0.0
0.0 0.0 0.0
0.0 0.0 0.0
0.0 0.0 0.0
0.0 0.0 0.0
0.0 0.0 0.0
0.0 0.0 0.0
0.0 0.0 0.0
0.0 0.0 0.0
0.0 0.0 0.0
0.0 0.0 0.0
0.0 0.0 0.0
0.0 0.0 0.0
0.0 0.0 0.0
0.0 0.0 0.0
0.0 0.0 0.0
0.0 0.0 0.0
0.0 0.0 0.0
0.0 0.0 0.0
0.0 0.0 0.0
0.0 0.0 0.0
0.0 0.0 0.0
0.0 0.0 0.0
0.0 0.0 0.0
0.0 0.0 0.0
0.0 0.0 0.0
0.0 0.0 0.0
0.0 0.0 0.0
0.0 0.0 0.0
0.0 0.0 0.0
0.0 0.0 0.0
0.0 0.0 0.0
0.0 0.0 0.0
0.0 0.0 0.0
0.0 0.0 0.0
0.0 0.0 0.0
0.0 0.0 0.0
0.0 0.0 0.0
0.0 0.0 0.0
0.0 0.0 0.0
0.0 0.0 0.0
0.0 0.0 0.0
0.0 0.0 0.0
0.0 0.0 0.0
0.0 0.0 0.0
0.0 0.0 0.0
0.0 0.0 0.0
0.0 0.0 0.0
0.0 0.0 0.0
0.0 0.0 0.0
0.0 0.0 0.0
0.0 0.0 0.0
0.0 0.0 0.0
0.0 0.0 0.0
0.0 0.0 0.0
0.0 0.0 0.0
0.0 0.0 0.0
0.0 0.0 0.0
0.0 0.0 0.0
0.0 0.0 0.0
0.0 0.0 0.0
0.0 0.0 0.0
0.0 0.0 0.0
0.0 0.0 0.0
0.0 0.0 0.0
0.0 0.0 0.0
0.0 0.0 0.0
0.0 0.0 0.0
0.0 0.0 0.0
0.0 0.0 0.0
0.0 0.0 0.0
0.0 0.0 0.0
0.0 0.0 0.0
0.0 0.0 0.0
0.0 0.0 0.0
VECTORS f float
9.29475 25.3306 224.43
0.0 0.0 -6.57473
-207.573 123.087 -144.923
11.2365 8.86241 279.642
0.0 0.0 -6.57473
155.753 -0.313676 0.549837
48.6777 -9.52654 9.47641
0.0 0.0 -6.57473
0.0 0.0 -6.57473
-2.29957 -174.631 -58.5853
-75.0173 20.2703 -57.9312
-26.6786 24.1299 -33.4233
-48.6777 9.52654 -22.6259
-184.038 -49.8318 -3.72774
0.0 0.0 -6.57473
0.0 0.0 -6.57473
-2.61949 7.22411 147.113
0.0 0.0 -6.57473
-43.5034 245.194 145.429
-11.6237 13.5087 349.849
184.038 49.8318 -9.42171
0.0 0.0 -6.57473
0.0 0.0 -6.57473
0.0 0.0 -6.57473
0.0 0.0 -6.57473
0.0 0.0 -6.57473
-56.0621 -100.568 -33.6464
0.0 0.0 -6.57473
0.0 0.0 -6.57473
-20.8169 9.26271 449.119
-113.923 -49.832 5.09545
113.923 49.832 -18.2449
-2.55384 -7.19184 146.062
56.0621 100.568 20.497
-10.9094 12.9596 332.226
-60.1438 -7.77542 80.0705
0.0 0.0 -6.57473
3.44227 -11.575 208.087
0.0 0.0 -6.57473
-111.632 -392.513 -230.558
0.0 0.0 -6.57473
0.0 0.0 -6.57473
-49.8189 -69.0524 4.47906
173.824 -211.648 -395.471
0.0 0.0 -6.57473
0.0 0.0 -6.57473
9.5272 22.039 473.627
0.0 0.0 -6.57473
-237.524 20.3908 -480.939
0.0 0.0 -6.57473
94.4267 -39.8314 -84.3574
0.0 0.0 -6.57473
0.0 0.0 -6.57473
97.6163 64.2616 -32.2681
-12.9063 -16.3406 193.067
0.0 0.0 -6.57473
1.68639 0.907645 31.7278
0.0 0.0 -6.57473
0.0 0.0 -6.57473
5.77372 -3.16755 125.136
-178.78 -5.8154 -12.7406
0.0 0.0 -6.57473
-6.90584 3.77727 150.853
7.73889 -0.101535 -6.94811
0.0 0.0 -6.57473
0.0 0.0 -6.57473
0.0 0.0 -6.57473
0.0 0.0 -6.57473
234.518 6.68728 -120.267
0.0 0.0 -6.57473
0.0 0.0 -6.57473
0.0 0.0 -6.57473
0.0 0.0 -6.57473
0.0 0.0 -6.57473
0.0 0.0 -6.57473
0.0 0.0 -6.57473
0.0 0.0 -6.57473
0.0 0.0 -6.57473
0.0 0.0 -6.57473
0.0 0.0 -6.57473
0.0 0.0 -6.57473
0.0 0.0 -6.57473
0.0 0.0 -6.57473
0.0 0.0 -6.57473
0.0 0.0 -6.57473
0.0 0.0 -6.57473
-243.156 176.525 -101.163
-14.9999 144.704 -50.5504
0.0 0.0 -6.57473
0.0 0.0 -6.57473
0.0 0.0 -6.57473
0.0 0.0 -6.57473
0.0 0.0 -6.57473
0.0 0.0 -6.57473
178.345 521.385 118.205
-60.693 4.7075 -43.7518
60.693 -4.7075 30.6023
75.0173 -20.2703 44.7818
-42.3666 -19.7325 -178.436
-155.753 0.313676 -13.6993
12.751 557.294 18.2013
0.0 0.0 -6.57473
0.0 0.0 -6.57473
0.0 0.0 -6.57473
0.0 0.0 -6.57473
0.0 0.0 -6.57473
-305.229 -238.824 -265.032
352.784 -2.0709 218.019
0.0 0.0 -6.57473
-51.9928 -42.3878 -69.0775
-13.944 -10.5564 -188.004
0.0 0.0 -6.57473
77.4906 239.95 -151.972
0.0 0.0 -6.57473
0.0 0.0 -6.57473
0.0 0.0 -6.57473
0.0 0.0 -6.57473
0.0 0.0 -6.57473
0.0 0.0 -6.57473
0.0 0.0 -6.57473
0.0 0.0 -6.57473
2.29957 174.631 45.4359
0.0 0.0 -6.57473
0.0 0.0 -6.57473
0.0 0.0 -6.57473
0.0 0.0 -6.57473
0.0 0.0 -6.57473
0.0 0.0 -6.57473
0.0 0.0 -6.57473
0.0 0.0 -6.57473
-107.152 54.7712 20.9444
61.5755 -73.6598 -68.7091
-130.317 -72.8791 -227.963
13.0235 -69.1138 687.597
-273.026 55.5595 -232.939
105.982 -30.4547 -137.887
0.0 0.0 -6.57473
0.0 0.0 -6.57473
55.7099 6.51392 -1.02247
0.0 0.0 -6.57473
80.8201 110.825 -181.219
104.137 25.247 -55.2191
8.70327 -2.17585 205.981
-41.1108 -7.21478 12.3317
-0.562252 -86.8871 -96.0959
0.0 0.0 -6.57473
0.0 0.0 -6.57473
-11.2013 4.42155 234.274
-104.137 -25.247 42.0697
0.0 0.0 -6.57473
-214.339 63.6494 391.466
229.827 -42.6109 120.655
0.0 0.0 -6.57473
111.632 392.513 217.409
0.0 0.0 -6.57473
-46.5044 3.33504 47.0065
-170.854 243.694 -130.572
0.0 0.0 -6.57473
-94.4267 39.8314 71.208
424.116 -50.1179 -240.863
0.0 0.0 -6.57473
34.9882 -4.29304 -30.6864
94.6215 -4.53295 -98.5844
0.0 0.0 -6.57473
178.78 5.8154 -0.408814
0.0 0.0 -6.57473
0.0 0.0 -6.57473
0.0 0.0 -6.57473
0.0 0.0 -6.57473
0.0 0.0 -6.57473
-31.7436 3.59396 632.352
0.0 0.0 -6.57473
0.0 0.0 -6.57473
-10.9019 -60.0676 -231.452
0.0 0.0 -6.57473
13.1489 -10.5578 330.684
-234.518 -6.68728 107.118
0.0 0.0 -6.57473
0.0 0.0 -6.57473
-202.543 -45.2052 296.472
0.0 0.0 -6.57473
0.0 0.0 -6.57473
0.0 0.0 -6.57473
0.0 0.0 -6.57473
-243.6 -55.4403 36.8333
243.6 55.4403 -49.9828
160.038 38.5662 -194.801
188.253 32.8774 67.8243
0.0 0.0 -6.57473
0.0 0.0 -6.57473
0.0 0.0 -6.57473
0.0 0.0 -6.57473
0.0 0.0 -6.57473
0.0 0.0 -6.57473
0.0 0.0 -6.57473
0.0 0.0 -6.57473
0.0 0.0 -6.57473
0.0 0.0 -6.57473
0.0 0.0 -6.57473
-34.2611 0.0869386 -35.9984
0.0 0.0 -6.57473
0.0 0.0 -6.57473
0.0 0.0 -6.57473
0.0 0.0 -6.57473
0.0 0.0 -6.57473
243.156 -176.525 88.014
0.0 0.0 -6.57473
0.0 0.0 -6.57473
0.0 0.0 -6.57473
0.0 0.0 -6.57473
-116.111 -173.965 -105.056
14.9999 -144.704 37.4009
0.0 0.0 -6.57473
0.0 0.0 -6.57473
-24.3565 -557.545 -20.1358
-4.3155 -501.763 -31.2889
6.12229 187.221 -13.6562
0.0 0.0 -6.57473
128.768 4.08349 27.5099
0.0 0.0 -6.57473
0.0 0.0 -6.57473
0.0 0.0 -6.57473
0.0 0.0 -6.57473
-77.4906 -239.95 138.823
0.0 0.0 -6.57473
96.1989 221.481 -48.8107
0.0 0.0 -6.57473
51.9928 42.3878 55.928
0.0 0.0 -6.57473
0.0 0.0 -6.57473
0.0 0.0 -6.57473
7.38558 -11.9976 -9.20373
0.0 0.0 -6.57473
0.0 0.0 -6.57473
0.0 0.0 -6.57473
0.0 0.0 -6.57473
0.0 0.0 -6.57473
0.0 0.0 -6.57473
-7.38558 11.9976 -3.94572
96.9293 8.66499 -91.0088
0.0 0.0 -6.57473
48.5843 -364.943 178.329
87.6199 1.59452 -2.49421
0.0 0.0 -6.57473
0.0 0.0 -6.57473
0.0 0.0 -6.57473
130.317 72.8791 214.813
0.0 0.0 -6.57473
-48.0559 86.4089 -33.5849
-159.248 307.375 -53.1184
9.62742 79.8764 -23.4018
0.0 0.0 -6.57473
-38.0892 -62.1385 -10.4378
0.0 0.0 -6.57473
34.3044 116.948 88.0842
-4.94581 8.14706 3.20405
0.0 0.0 -6.57473
0.0 0.0 -6.57473
0.0 0.0 -6.57473