# vtk DataFile Version 2.0
Generated by lpp.py
ASCII
DATASET POLYDATA
POINTS 275 float
-0.667567 -0.733365 -0.973084
0.643777 -0.965691 -0.793811
0.399966 -0.16559 -0.781699
0.501526 -0.156353 -0.796629
-0.185602 -0.278703 -0.677389
-0.199228 -0.516112 -0.539144
-0.839403 -0.304289 -0.549299
-0.301052 -0.353464 -0.521249
-0.0465972 -0.318998 -0.478406
0.108492 -0.150881 -0.475195
-0.389206 -0.0355477 -0.435979
0.136705 -0.297489 -0.333145
-0.667763 -0.255716 -0.361363
-0.343959 -0.123787 -0.351467
0.64858 -0.115637 -0.359662
0.227463 -0.0167299 -0.366441
0.843373 0.012113 -0.32833
-0.598837 -0.378928 -0.245388
-0.883174 -0.316962 -0.220596
-0.339128 -0.281336 -0.24397
-0.160243 -0.29821 -0.22742
-0.530386 -0.262897 -0.233819
0.409332 -0.250015 -0.249984
0.189969 -0.175917 -0.236731
-0.739006 -0.112506 -0.299105
-0.898929 -0.399297 -0.196651
-0.818387 -0.366864 -0.193543
-0.729812 -0.33461 -0.206611
-0.502767 -0.355777 -0.183155
-0.322844 -0.371952 -0.194182
-0.211248 -0.348142 -0.201148
-0.0660191 -0.347845 -0.210848
0.0427891 -0.374689 -0.206952
0.59263 -0.38804 -0.208137
0.805976 -0.341001 -0.153612
-0.000466142 -0.281974 -0.167163
0.101063 -0.281479 -0.191258
0.168916 -0.328848 -0.155501
0.370878 -0.331426 -0.216344
0.590071 -0.299708 -0.18422
-0.612418 -0.229799 -0.187247
0.321589 -0.259701 -0.154799
0.632657 -0.230525 -0.214619
-0.736217 -0.180329 -0.207356
-0.472006 -0.180075 -0.154341
-0.310906 -0.217881 -0.218359
0.0695907 -0.175771 -0.20025
0.261762 -0.163384 -0.171712
0.878287 -0.194265 -0.192972
-0.441674 -0.108895 -0.208508
-0.132607 -0.144585 -0.18062
-0.0557502 -0.119204 -0.176773
0.0612368 -0.0972783 -0.205573
0.419476 -0.121917 -0.232358
0.883867 -0.107729 -0.196921
-0.740757 -0.0999696 -0.228455
0.177824 -0.0743387 -0.220512
0.34966 -0.086948 -0.269618
0.644645 -0.0717781 -0.204584
0.875956 -0.00481865 -0.18259
-0.730677 -0.395484 -0.0826459
-0.0209375 -0.398372 -0.103658
0.47133 -0.412055 -0.130454
0.661814 -0.398752 -0.0888246
-0.132305 -0.286383 -0.128388
0.45133 -0.300212 -0.125601
0.680034 -0.296313 -0.0970994
0.89841 -0.277116 -0.148053
-0.800158 -0.200673 -0.0932965
-0.423609 -0.264031 -0.110853
-0.199234 -0.2374 -0.138546
-0.0903123 -0.212791 -0.08407
0.542842 -0.249639 -0.10145
0.788215 -0.208071 -0.125829
-0.8914 -0.158888 -0.107615
-0.00966435 -0.190577 -0.14136
0.0975262 -0.200339 -0.0777493
0.518745 -0.15125 -0.138889
0.716465 -0.167067 -0.114005
-0.772086 -0.107729 -0.134934
-0.608867 -0.133692 -0.136499
0.316082 -0.0873817 -0.0968283
0.816716 -0.113096 -0.0964932
-0.897167 -0.0417488 -0.124158
-0.803562 -0.0262618 -0.103323
-0.536968 -0.0941738 -0.163646
-0.456027 -0.0107177 -0.156322
-0.286689 -0.0222956 -0.167964
-0.0231683 -0.0560683 -0.0790269
0.157014 -0.064817 -0.126747
0.541776 -0.0643406 -0.146579
0.688254 -0.0393199 -0.134542
0.778612 -0.0559252 -0.139722
-0.879158 0.0816051 -0.0822063
-0.846823 0.16322 -0.130838
-0.906768 0.246176 -0.108621
0.0808518 0.264535 -0.0598743
0.54369 0.248574 -0.0675501
-0.539187 0.280964 -0.0725902
-0.336276 0.295927 -0.0675206
0.280944 0.371874 -0.0643843
0.55712 0.336986 -0.0657422
0.681981 0.400276 -0.06731
-0.865511 -0.377988 -0.0430945
-0.655278 -0.384664 -0.029338
-0.555034 -0.380243 -0.00966435
-0.433584 -0.3792 -0.0674983
-0.335477 -0.33562 -0.00720215
-0.244875 -0.363587 -0.0118097
-0.149027 -0.399995 -0.0580471
-0.0854038 -0.347428 -0.0303666
0.0480356 -0.384671 -0.0117421
0.133823 -0.374184 -0.0453247
0.209332 -0.334188 -0.0071044
0.279371 -0.357019 -0.072542
0.39944 -0.398866 -0.0200891
0.536087 -0.349546 -0.0470882
0.616946 -0.350337 -0.0101286
0.759815 -0.350732 -0.0133382
0.893682 -0.395474 -0.0766361
-0.772972 -0.327848 -0.0442073
-0.625387 -0.303859 -0.0496941
-0.487442 -0.285497 -0.0261499
-0.268105 -0.28813 -0.0457422
-0.170539 -0.291904 -0.0189929
-0.0146049 -0.295721 -0.0191732
0.10149 -0.295439 -0.042892
0.360229 -0.327885 -0.0222528
0.466017 -0.30736 -0.00713646
0.82997 -0.310182 -0.0323289
-0.8565 -0.262885 -0.0620709
-0.725622 -0.236859 -0.061397
-0.550834 -0.209144 -0.0565435
-0.374019 -0.238142 -0.00609554
-0.309007 -0.210534 -0.0716214
0.0333816 -0.220881 -0.03539
0.170543 -0.236731 -0.0465693
0.256897 -0.233628 -0.01614
0.347034 -0.251469 -0.0442212
0.618029 -0.26129 -0.0152958
0.763043 -0.23792 -0.0257911
-0.781192 -0.133942 -0.0141111
-0.649467 -0.173334 -0.0770585
-0.467284 -0.196296 -0.0247536
-0.374478 -0.152341 -0.0662784
-0.199978 -0.192419 -0.0260351
-0.119113 -0.149871 -0.0179811
-0.034827 -0.14977 -0.0188738
0.207732 -0.16939 -0.0310102
0.351272 -0.178937 -0.01256
0.433136 -0.200086 -0.0719383
0.56787 -0.191273 -0.0166527
0.671578 -0.200465 -0.0134131
0.755881 -0.136839 -0.0258708
0.877537 -0.192573 -0.0427203
-0.853585 -0.0900511 -0.0221546
-0.703443 -0.105369 -0.0129668
-0.562865 -0.11513 -0.0578672
-0.467448 -0.0953129 -0.0545168
-0.320391 -0.0729657 -0.0107271
-0.248055 -0.118352 -0.0683549
0.0335304 -0.0998991 -0.0485305
0.184084 -0.0758763 -0.0364488
0.463082 -0.0906194 -0.0352803
0.896184 -0.102591 -0.0199762
-0.858929 -0.00626868 -0.0157619
-0.723153 -0.0541314 -0.0782463
-0.645272 -0.0395817 -0.0106005
-0.529478 -0.0449286 -0.0692033
-0.385068 -0.0285575 -0.0416322
-0.206168 -0.0313974 -0.0116774
-0.130347 -0.0622612 -0.0253179
0.095399 -0.0242881 -0.0559405
0.526844 -0.017421 -0.025149
0.627987 -0.0670509 -0.0302602
0.730939 -0.0494448 -0.00734679
0.832619 -0.0229367 -0.0801508
0.922448 -0.0241641 -0.038185
-0.790068 0.110131 -0.00492276
-0.419142 0.134126 -0.0247522
-0.0335962 0.127114 -0.0235774
0.17405 0.116083 -0.00516699
0.308887 0.117088 -0.00551466
0.490983 0.117026 -0.0111147
0.777585 0.125636 -0.0224844
0.887326 0.128512 -0.00555116
-0.899497 0.155311 -0.0451268
-0.738947 0.174984 -0.0687643
-0.628858 0.194135 -0.0499997
-0.492779 0.168402 -0.0627656
-0.346354 0.201908 -0.0650374
-0.298872 0.135329 -0.0326703
-0.0997043 0.183798 -0.0209168
0.0286987 0.184574 -0.030737
0.14418 0.170511 -0.058799
0.222326 0.195041 -0.0691732
0.387932 0.134337 -0.0293735
0.489438 0.18827 -0.0469097
0.608405 0.169992 -0.0626218
0.690217 0.155727 -0.0486385
0.929488 0.188986 -0.0630017
-0.827992 0.196879 -0.0262649
-0.783549 0.262438 -0.0494934
-0.678048 0.268513 -0.0237889
-0.545203 0.236884 -0.00958267
-0.471396 0.243946 -0.0445256
-0.202559 0.204651 -0.0396472
-0.039408 0.231369 -0.0635711
0.300611 0.206627 -0.0424745
0.382498 0.215486 -0.0583009
0.645215 0.236465 -0.0504951
0.762531 0.209526 -0.0319656
0.832984 0.223281 -0.061961
-0.860467 0.323725 -0.0333621
-0.729609 0.324284 -0.0683359
-0.557664 0.325435 -0.00420166
-0.241305 0.276445 -0.0262127
-0.159525 0.277988 -0.0398936
-0.0850751 0.304807 -0.0215735
-0.00693949 0.324197 -0.0443649
0.251308 0.312311 -0.0219647
0.326844 0.304726 -0.0573827
0.416881 0.286737 -0.0686099
0.498461 0.29656 -0.0225841
0.653639 0.325194 -0.0458351
0.716593 0.279399 0.00238408
0.830649 0.291784 -0.0111029
0.908707 0.310858 -0.0167908
-0.675318 0.381819 -0.0048375
-0.62275 0.351158 -0.0537696
-0.54418 0.404961 -0.0425538
-0.484067 0.350722 -0.0267679
-0.402954 0.347914 -0.0443928
-0.315256 0.370696 -0.0537596
-0.250584 0.40005 -0.0137769
-0.190322 0.346919 -0.0265901
-0.0999045 0.390131 -0.0277047
0.0768455 0.350478 -0.0563527
0.114715 0.40384 -0.010728
0.173978 0.35385 -0.038816
0.397827 0.388631 -0.0568055
0.3379 0.397176 -0.00129633
0.498559 0.396502 -0.0551343
0.741919 0.33803 -0.0444496
0.826116 0.387466 -0.0469374
-0.767258 0.409239 -0.0374668
0.0103581 0.417928 -0.0426821
0.225271 0.405555 -0.00570059
0.604327 0.420665 -0.0407885
0.930496 0.409582 -0.0497672
-0.731426 0.568555 -0.00794218
0.497274 -0.234863 0.0181099
0.384414 -0.0897444 0.00620401
0.56667 -0.103609 0.00306887
-0.711298 0.126405 0.00115592
-0.578897 0.138784 0.0994127
-0.212397 0.166403 0.0541629
0.091283 0.150737 0.0062868
-0.612352 0.268838 0.0241582
-0.307047 0.230748 0.00922622
0.176212 0.274765 0.00940879
0.391985 0.328266 0.00585501
0.720461 0.373373 0.0296722
-0.101058 0.251955 0.161277
0.697552 0.205091 0.117045
-0.0118228 0.264428 0.0765305
0.836044 0.281497 0.0914851
0.951884 0.266447 0.162604
0.531907 0.297444 0.247594
0.254608 0.532387 0.223779
-0.76533 0.494479 0.349107
0.321872 0.61901 0.574624
0.102455 0.893922 0.820515
0.422292 0.978299 0.803413
-0.491273 0.747546 0.897427
VERTICES 275 550
1 0
1 1
1 2
1 3
1 4
1 5
1 6
1 7
1 8
1 9
1 10
1 11
1 12
1 13
1 14
1 15
1 16
1 17
1 18
1 19
1 20
1 21
1 22
1 23
1 24
1 25
1 26
1 27
1 28
1 29
1 30
1 31
1 32
1 33
1 34
1 35
1 36
1 37
1 38
1 39
1 40
1 41
1 42
1 43
1 44
1 45
1 46
1 47
1 48
1 49
1 50
1 51
1 52
1 53
1 54
1 55
1 56
1 57
1 58
1 59
1 60
1 61
1 62
1 63
1 64
1 65
1 66
1 67
1 68
1 69
1 70
1 71
1 72
1 73
1 74
1 75
1 76
1 77
1 78
1 79
1 80
1 81
1 82
1 83
1 84
1 85
1 86
1 87
1 88
1 89
1 90
1 91
1 92
1 93
1 94
1 95
1 96
1 97
1 98
1 99
1 100
1 101
1 102
1 103
1 104
1 105
1 106
1 107
1 108
1 109
1 110
1 111
1 112
1 113
1 114
1 115
1 116
1 117
1 118
1 119
1 120
1 121
1 122
1 123
1 124
1 125
1 126
1 127
1 128
1 129
1 130
1 131
1 132
1 133
1 134
1 135
1 136
1 137
1 138
1 139
1 140
1 141
1 142
1 143
1 144
1 145
1 146
1 147
1 148
1 149
1 150
1 151
1 152
1 153
1 154
1 155
1 156
1 157
1 158
1 159
1 160
1 161
1 162
1 163
1 164
1 165
1 166
1 167
1 168
1 169
1 170
1 171
1 172
1 173
1 174
1 175
1 176
1 177
1 178
1 179
1 180
1 181
1 182
1 183
1 184
1 185
1 186
1 187
1 188
1 189
1 190
1 191
1 192
1 193
1 194
1 195
1 196
1 197
1 198
1 199
1 200
1 201
1 202
1 203
1 204
1 205
1 206
1 207
1 208
1 209
1 210
1 211
1 212
1 213
1 214
1 215
1 216
1 217
1 218
1 219
1 220
1 221
1 222
1 223
1 224
1 225
1 226
1 227
1 228
1 229
1 230
1 231
1 232
1 233
1 234
1 235
1 236
1 237
1 238
1 239
1 240
1 241
1 242
1 243
1 244
1 245
1 246
1 247
1 248
1 249
1 250
1 251
1 252
1 253
1 254
1 255
1 256
1 257
1 258
1 259
1 260
1 261
1 262
1 263
1 264
1 265
1 266
1 267
1 268
1 269
1 270
1 271
1 272
1 273
1 274
POINT_DATA 275
VECTORS i float
0.0 0.0 0.0
0.0 0.0 0.0
0.0 0.0 0.0
0.0 0.0 0.0
0.0 0.0 0.0
0.0 0.0 0.0
0.0 0.0 0.0
0.0 0.0 0.0
0.0 0.0 0.0
0.0 0.0 0.0
0.0 0.0 0.0
0.0 0.0 0.0
0.0 0.0 0.0
0.0 0.0 0.0
0.0 0.0 0.0
0.0 0.0 0.0
0.0 0.0 0.0
0.0 0.0 0.0
0.0 0.0 0.0
0.0 0.0 0.0
0.0 0.0 0.0
0.0 0.0 0.0
0.0 0.0 0.0
0.0 0.0 0.0
0.0 0.0 0.0
0.0 0.0 0.0
0.0 0.0 0.0
0.0 0.0 0.0
0.0 0.0 0.0
0.0 0.0 0.0
0.0 0.0 0.0
0.0 0.0 0.0
0.0 0.0 0.0
0.0 0.0 0.0
0.0 0.0 0.0
0.0 0.0 0.0
0.0 0.0 0.0
0.0 0.0 0.0
0.0 0.0 0.0
0.0 0.0 0.0
0.0 0.0 0.0
0.0 0.0 0.0
0.0 0.0 0.0
0.0 0.0 0.0
0.0 0.0 0.0
0.0 0.0 0.0
0.0 0.0 0.0
0.0 0.0 0.0
0.0 0.0 0.0
0.0 0.0 0.0
0.0 0.0 0.0
0.0 0.0 0.0
0.0 0.0 0.0
0.0 0.0 0.0
0.0 0.0 0.0
0.0 0.0 0.0
0.0 0.0 0.0
0.0 0.0 0.0
0.0 0.0 0.0
0.0 0.0 0.0
0.0 0.0 0.0
0.0 0.0 0.0
0.0 0.0 0.0
0.0 0.0 0.0
0.0 0.0 0.0
0.0 0.0 0.0
0.0 0.0 0.0
0.0 0.0 0.0
0.0 0.0 0.0
0.0 0.0 0.0
0.0 0.0 0.0
0.0 0.0 0.0
0.0 0.0 0.0
0.0 0.0 0.0
0.0 0.0 0.0
0.0 0.0 0.0
0.0 0.0 0.0
0.0 0.0 0.0
0.0 0.0 0.0
0.0 0.0 0.0
0.0 0.0 0.0
0.0 0.0 0.0
0.0 0.0 0.0
0.0 0.0 0.0
0.0 0.0 0.0
0.0 0.0 0.0
0.0 0.0 0.0
0.0 0.0 0.0
0.0 0.0 0.0
0.0 0.0 0.0
0.0 0.0 0.0
0.0 0.0 0.0
0.0 0.0 0.0
0.0 0.0 0.0
0.0 0.0 0.0
0.0 0.0 0.0
0.0 0.0 0.0
0.0 0.0 0.0
0.0 0.0 0.0
0.0 0.0 0.0
0.0 0.0 0.0
0.0 0.0 0.0
0.0 0.0 0.0
0.0 0.0 0.0
0.0 0.0 0.0
0.0 0.0 0.0
0.0 0.0 0.0
0.0 0.0 0.0
0.0 0.0 0.0
0.0 0.0 0.0
0.0 0.0 0.0
0.0 0.0 0.0
0.0 0.0 0.0
0.0 0.0 0.0
0.0 0.0 0.0
0.0 0.0 0.0
0.0 0.0 0.0
0.0 0.0 0.0
0.0 0.0 0.0
0.0 0.0 0.0
0.0 0.0 0.0
0.0 0.0 0.0
0.0 0.0 0.0
0.0 0.0 0.0
0.0 0.0 0.0
0.0 0.0 0.0
0.0 0.0 0.0
0.0 0.0 0.0
0.0 0.0 0.0
0.0 0.0 0.0
0.0 0.0 0.0
0.0 0.0 0.0
0.0 0.0 0.0
0.0 0.0 0.0
0.0 0.0 0.0
0.0 0.0 0.0
0.0 0.0 0.0
0.0 0.0 0.0
0.0 0.0 0.0
0.0 0.0 0.0
0.0 0.0 0.0
0.0 0.0 0.0
0.0 0.0 0.0
0.0 0.0 0.0
0.0 0.0 0.0
0.0 0.0 0.0
0.0 0.0 0.0
0.0 0.0 0.0
0.0 0.0 0.0
0.0 0.0 0.0
0.0 0.0 0.0
0.0 0.0 0.0
0.0 0.0 0.0
0.0 0.0 0.0
0.0 0.0 0.0
0.0 0.0 0.0
0.0 0.0 0.0
0.0 0.0 0.0
0.0 0.0 0.0
0.0 0.0 0.0
0.0 0.0 0.0
0.0 0.0 0.0
0.0 0.0 0.0
0.0 0.0 0.0
0.0 0.0 0.0
0.0 0.0 0.0
0.0 0.0 0.0
0.0 0.0 0.0
0.0 0.0 0.0
0.0 0.0 0.0
0.0 0.0 0.0
0.0 0.0 0.0
0.0 0.0 0.0
0.0 0.0 0.0
0.0 0.0 0.0
0.0 0.0 0.0
0.0 0.0 0.0
0.0 0.0 0.0
0.0 0.0 0.0
0.0 0.0 0.0
0.0 0.0 0.0
0.0 0.0 0.0
0.0 0.0 0.0
0.0 0.0 0.0
0.0 0.0 0.0
0.0 0.0 0.0
0.0 0.0 0.0
0.0 0.0 0.0
0.0 0.0 0.0
0.0 0.0 0.0
0.0 0.0 0.0
0.0 0.0 0.0
0.0 0.0 0.0
0.0 0.0 0.0
0.0 0.0 0.0
0.0 0.0 0.0
0.0 0.0 0.0
0.0 0.0 0.0
0.0 0.0 0.0
0.0 0.0 0.0
0.0 0.0 0.0
0.0 0.0 0.0
0.0 0.0 0.0
0.0 0.0 0.0
0.0 0.0 0.0
0.0 0.0 0.0
0.0 0.0 0.0
0.0 0.0 0.0
0.0 0.0 0.0
0.0 0.0 0.0
0.0 0.0 0.0
0.0 0.0 0.0
0.0 0.0 0.0
0.0 0.0 0.0
0.0 0.0 0.0
0.0 0.0 0.0
0.0 0.0 0.0
0.0 0.0 0.0
0.0 0.0 0.0
0.0 0.0 0.0
0.0 0.0 0.0
0.0 0.0 0.0
0.0 0.0 0.0
0.0 0.0 0.0
0.0 0.0 0.0
0.0 0.0 0.0
0.0 0.0 0.0
0.0 0.0 0.0
0.0 0.0 0.0
0.0 0.0 0.0
0.0 0.0 0.0
0.0 0.0 0.0
0.0 0.0 0.0
0.0 0.0 0.0
0.0 0.0 0.0
0.0 0.0 0.0
0.0 0.0 0.0
0.0 0.0 0.0
0.0 0.0 0.0
0.0 0.0 0.0
0.0 0.0 0.0
0.0 0.0 0.0
0.0 0.0 0.0
0.0 0.0 0.0
0.0 0.0 0.0
0.0 0.0 0.0
0.0 0.0 0.0
0.0 0.0 0.0
0.0 0.0 0.0
0.0 0.0 0.0
0.0 0.0 0.0
0.0 0.0 0.0
0.0 0.0 0.0
0.0 0.0 0.0
0.0 0.0 0.0
0.0 0.0 0.0
0.0 0.0 0.0
0.0 0.0 0.0
0.0 0.0 0.0
0.0 0.0 0.0
0.0 0.0 0.0
0.0 0.0 0.0
0.0 0.0 0.0
0.0 0.0 0.0
0.0 0.0 0.0
0.0 0.0 0.0
0.0 0.0 0.0
0.0 0.0 0.0
0.0 0.0 0.0
0.0 0.0 0.0
0.0 0.0 0.0
0.0 0.0 0.0
0.0 0.0 0.0
0.0 0.0 0.0
0.0 0.0 0.0
VECTORS f float
0.291708 39.9878 793.202
0.119681 247.956 -18.9719
0.0 0.0 -6.57473
0.0 0.0 -6.57473
0.0 0.0 -6.57473
0.0 0.0 -6.57473
0.0 0.0 -6.57473
0.0 0.0 -6.57473
0.0 0.0 -6.57473
0.0 0.0 -6.57473
0.0 0.0 -6.57473
0.0 0.0 -6.57473
0.0 0.0 -6.57473
0.0 0.0 -6.57473
0.0 0.0 -6.57473
0.0 0.0 -6.57473
0.0 0.0 -6.57473
0.0 0.0 -6.57473
0.0 0.0 -6.57473
-93.1193 -243.515 -103.017
91.9678 97.4469 -50.9004
0.0 0.0 -6.57473
0.0 0.0 -6.57473
0.0 0.0 -6.57473
-4.71889 -66.0793 -321.586
0.0 0.0 -6.57473
0.0 0.0 -6.57473
0.0 0.0 -6.57473
0.0 0.0 -6.57473
0.0 0.0 -6.57473
-91.9678 -97.4469 37.751
0.0 0.0 -6.57473
0.0 0.0 -6.57473
0.0 0.0 -6.57473
0.0 0.0 -6.57473
0.0 0.0 -6.57473
0.0 0.0 -6.57473
0.0 0.0 -6.57473
0.0 0.0 -6.57473
0.0 0.0 -6.57473
0.0 0.0 -6.57473
0.0 0.0 -6.57473
0.0 0.0 -6.57473
0.0 0.0 -6.57473
0.0 0.0 -6.57473
93.1193 243.515 89.8672
6.82967 -52.8752 -5.36531
0.0 0.0 -6.57473
0.0 0.0 -6.57473
0.0 0.0 -6.57473
0.0 0.0 -6.57473
0.0 0.0 -6.57473
-6.82967 52.8752 -7.78414
0.0 0.0 -6.57473
0.0 0.0 -6.57473
4.71889 66.0793 308.437
0.0 0.0 -6.57473
0.0 0.0 -6.57473
0.0 0.0 -6.57473
0.0 0.0 -6.57473
0.0 0.0 -6.57473
0.0 0.0 -6.57473
0.0 0.0 -6.57473
0.0 0.0 -6.57473
0.0 0.0 -6.57473
0.0 0.0 -6.57473
0.0 0.0 -6.57473
0.0 0.0 -6.57473
0.0 0.0 -6.57473
0.0 0.0 -6.57473
0.0 0.0 -6.57473
0.0 0.0 -6.57473
0.0 0.0 -6.57473
0.0 0.0 -6.57473
0.0 0.0 -6.57473
0.0 0.0 -6.57473
16.2503 5.88881 -16.5472
0.0 0.0 -6.57473
0.0 0.0 -6.57473
0.0 0.0 -6.57473
0.0 0.0 -6.57473
0.0 0.0 -6.57473
0.0 0.0 -6.57473
0.0 0.0 -6.57473
0.0 0.0 -6.57473
0.0 0.0 -6.57473
0.0 0.0 -6.57473
0.0 0.0 -6.57473
-59.6688 43.7559 -34.2792
0.0 0.0 -6.57473
0.0 0.0 -6.57473
0.0 0.0 -6.57473
0.0 0.0 -6.57473
0.0 0.0 -6.57473
0.0 0.0 -6.57473
0.0 0.0 -6.57473
0.0 0.0 -6.57473
4.23256 -3.97932 -10.52
26.0044 53.9062 205.914
-9.2191 -32.9606 -14.4189
17.7969 32.4251 -28.3133
0.0 0.0 -6.57473
0.0 0.0 -6.57473
0.0 0.0 -6.57473
0.0 0.0 -6.57473
0.0 0.0 -6.57473
0.0 0.0 -6.57473
0.0 0.0 -6.57473
0.0 0.0 -6.57473
0.0 0.0 -6.57473
0.0 0.0 -6.57473
0.0 0.0 -6.57473
0.0 0.0 -6.57473
0.0 0.0 -6.57473
0.0 0.0 -6.57473
0.0 0.0 -6.57473
0.0 0.0 -6.57473
0.0 0.0 -6.57473
0.0 0.0 -6.57473
0.0 0.0 -6.57473
0.0 0.0 -6.57473
0.0 0.0 -6.57473
0.0 0.0 -6.57473
0.0 0.0 -6.57473
0.0 0.0 -6.57473
0.0 0.0 -6.57473
0.0 0.0 -6.57473
0.0 0.0 -6.57473
0.0 0.0 -6.57473
0.0 0.0 -6.57473
0.0 0.0 -6.57473
0.0 0.0 -6.57473
0.0 0.0 -6.57473
0.0 0.0 -6.57473
0.0 0.0 -6.57473
-16.2503 -5.88881 3.39778
-31.2797 -51.3933 -17.0054
0.0 0.0 -6.57473
-1.2197 -41.6859 -22.6959
0.0 0.0 -6.57473
0.0 0.0 -6.57473
0.0 0.0 -6.57473
0.0 0.0 -6.57473
0.0 0.0 -6.57473
0.0 0.0 -6.57473
0.0 0.0 -6.57473
0.0 0.0 -6.57473
0.0 0.0 -6.57473
31.2797 51.3933 3.85599
1.2197 41.6859 9.54646
0.0 0.0 -6.57473
0.0 0.0 -6.57473
0.0 0.0 -6.57473
0.0 0.0 -6.57473
0.0 0.0 -6.57473
0.0 0.0 -6.57473
0.0 0.0 -6.57473
-17.0867 -40.7835 -0.920251
0.0 0.0 -6.57473
0.0 0.0 -6.57473
0.0 0.0 -6.57473
59.6688 -43.7559 21.1298
0.0 0.0 -6.57473
0.0 0.0 -6.57473
0.0 0.0 -6.57473
0.0 0.0 -6.57473
0.0 0.0 -6.57473
0.0 0.0 -6.57473
17.0867 40.7835 -12.2292
0.0 0.0 -6.57473
0.0 0.0 -6.57473
0.0 0.0 -6.57473
0.0 0.0 -6.57473
0.0 0.0 -6.57473
41.8635 23.8311 -26.3957
0.0 0.0 -6.57473
0.0 0.0 -6.57473
0.0 0.0 -6.57473
0.18627 2.63149 -3.93531
0.0 0.0 -6.57473
3.26714 46.1466 39.8022
0.0 0.0 -6.57473
0.0 0.0 -6.57473
0.618527 -11.1105 -1.52488
4.2437 59.9401 53.6503
0.0 0.0 -6.57473
0.0 0.0 -6.57473
3.29764 0.0652877 59.391
0.0 0.0 -6.57473
0.0 0.0 -6.57473
0.0 0.0 -6.57473
5.43177 76.8575 70.2087
0.0 0.0 -6.57473
0.0 0.0 -6.57473
0.0 0.0 -6.57473
5.06447 0.0257748 94.716
0.601899 8.50501 1.94838
-0.618527 11.1105 -11.6246
-48.7668 -99.1432 -25.8125
0.0 0.0 -6.57473
0.0 0.0 -6.57473
0.0 0.0 -6.57473
0.0 0.0 -6.57473
0.0 0.0 -6.57473
-11.671 -55.4646 69.2951
0.0 0.0 -6.57473
0.0 0.0 -6.57473
0.0 0.0 -6.57473
0.0 0.0 -6.57473
-4.38883 -9.02361 -5.77317
48.7668 99.1432 12.663
-73.6475 -14.2665 20.4578
73.6475 14.2665 -33.6072
0.0 0.0 -6.57473
2.7408 -0.125471 48.2986
0.0 0.0 -6.57473
0.0 0.0 -6.57473
47.3648 -113.256 -22.6858
0.0 0.0 -6.57473
0.0 0.0 -6.57473
-17.7969 -32.4251 15.1638
0.0 0.0 -6.57473
7.53727 9.0195 55.5924
-4.23256 3.97932 -2.62946
0.0 0.0 -6.57473
-10.1772 -24.8796 11.2441
0.0 0.0 -6.57473
0.0 0.0 -6.57473
-42.4558 25.2544 37.3439
42.4558 -25.2544 -50.4934
0.0 0.0 -6.57473
0.0 0.0 -6.57473
0.0 0.0 -6.57473
9.2191 32.9606 1.26946
0.0 0.0 -6.57473
-47.3648 113.256 9.53632
0.0 0.0 -6.57473
-1.48557 -2.07246 -8.54842
1.48557 2.07246 -4.60103
0.0 0.0 -6.57473
0.0 0.0 -6.57473
0.0 0.0 -6.57473
0.0 0.0 -6.57473
10.1772 24.8796 -24.3936
0.0 0.0 -6.57473
0.0 0.0 -6.57473
0.0 0.0 -6.57473
0.0 0.0 -6.57473
0.0 0.0 -6.57473
0.0 0.0 -6.57473
7.35561 -106.641 98.1896
0.0 0.0 -6.57473
0.0 0.0 -6.57473
-41.8635 -23.8311 13.2463
0.0 0.0 -6.57473
0.0 0.0 -6.57473
0.0 0.0 -6.57473
0.0 0.0 -6.57473
0.0 0.0 -6.57473
0.0 0.0 -6.57473
0.0 0.0 -6.57473
0.0 0.0 -6.57473
0.0 0.0 -6.57473
0.0 0.0 -6.57473
0.0 0.0 -6.57473
0.0 0.0 -6.57473
0.0 0.0 -6.57473
0.0 0.0 -6.57473
0.0 0.0 -6.57473
0.0 0.0 -6.57473
0.0 0.0 -6.57473
0.0 0.0 -6.57473
0.0 0.0 -6.57473
-0.389081 -994.635 -56.305
0.0 0.0 -6.57473
VECTORS omega float
4.49483 11.6834 -11.7346
65.3314 14.7146 -14.4378
-10.8405 13.8046 -14.0217
-12.5398 14.3226 -14.5148
5.33731 -7.42345 -2.65393
2.74676 16.9572 -17.8107
0.327637 6.0451 -6.10577
2.26221 8.18246 -7.20249
-3.10265 5.55561 -15.6213
-3.32632 16.1574 -18.1348
5.60425 0.767157 2.80934
3.75617 -1.69568 -5.19486
3.0516 7.24955 -3.02406
-4.56407 2.19043 -3.68179
-3.33166 8.19587 -6.63235
-5.5011 1.44887 -0.662921
2.87361 -3.01561 3.13542
0.0 0.0 0.0
0.0 0.0 0.0
0.0736286 0.181556 -0.525165
2.23512 0.49174 -6.12248
0.0 0.0 0.0
1.93048 0.697567 -9.20171
0.0 0.0 0.0
-0.718812 2.91476 -3.86991
0.0 0.0 0.0
0.0 0.0 0.0
0.0 0.0 0.0
0.0 0.0 0.0
0.0 0.0 0.0
-1.91051 0.852084 -2.0451
0.0 0.0 0.0
0.0 0.0 0.0
0.0 0.0 0.0
0.0 0.0 0.0
0.0 0.0 0.0
0.0 0.0 0.0
-1.93702 2.486 0.845869
1.6032 -0.413811 2.48955
0.0 0.0 0.0
0.0 0.0 0.0
10.3825 -0.00930135 -12.1169
3.22052 -0.505852 0.828243
0.0 0.0 0.0
0.0 0.0 0.0
-23.5379 3.83038 -1.95491
-0.0493073 -0.00698507 -0.0247671
-7.08544 -2.88516 -0.566623
0.0 0.0 0.0
-0.176274 0.140679 -0.313007
-4.5904 4.86594 -8.10461
-6.3674 17.2388 -15.849
-4.6569 19.9217 -18.9959
-4.73683 9.89516 -10.525
0.0 0.0 0.0
-1.10735 3.95444 -4.6862
-8.79169 7.97878 -6.96601
-6.27265 11.151 -13.0739
3.21804 -8.05157 4.26665
0.0 0.0 0.0
0.0 0.0 0.0
0.0 0.0 0.0
3.92385 0.75246 -1.41463
0.0 0.0 0.0
0.0 0.0 0.0
-0.398923 0.146628 0.369958
0.0 0.0 0.0
0.0 0.0 0.0
0.0 0.0 0.0
0.0 0.0 0.0
0.0 0.0 0.0
0.0 0.0 0.0
-2.2866 0.346721 2.23148
0.0 0.0 0.0
0.0 0.0 0.0
0.0 0.0 0.0
-1.14512 -0.453579 -3.25974
-4.42369 -0.443733 6.7569
0.0 0.0 0.0
0.0 0.0 0.0
-2.16137 -1.42728 1.62929
-16.344 -14.3501 2.60919
0.0 0.0 0.0
0.0 0.0 0.0
0.0 0.0 0.0
-4.17369 -12.8555 10.8089
-8.87458 10.6121 -10.5154
-21.4533 15.7461 -15.6656
-1.414 -2.62751 1.47475
-2.00377 -7.2701 5.75036
2.02417 6.16189 -4.68128
1.21848 -1.11467 -2.79077
1.90881 -2.00446 4.23485
0.0 0.0 0.0
-0.719777 -2.09756 -0.247046
-0.139541 0.470524 -1.83114
0.0 -6.9062 0.0
-2.54917 -7.29193 1.61088
-6.69076 -8.94667 -1.31542
-5.20477 -6.83444 0.516656
-1.96423 -6.97352 -0.558837
-4.07863 -10.5849 4.53908
-0.0761918 -6.75953 -0.267664
0.0 0.0 0.0
0.0 0.0 0.0
0.0 0.0 0.0
0.0 0.0 0.0
0.0 0.0 0.0
0.0 0.0 0.0
0.0 0.0 0.0
0.0 0.0 0.0
0.0 0.0 0.0
0.0 0.0 0.0
0.0 0.0 0.0
0.0 0.0 0.0
0.0492469 0.0413178 0.50155
0.0 0.0 0.0
0.0 0.0 0.0
0.0 0.0 0.0
0.0 0.0 0.0
0.0 0.0 0.0
0.0 0.0 0.0
0.0 0.0 0.0
0.0 0.0 0.0
0.0 0.0 0.0
0.0 0.0 0.0
0.0 0.0 0.0
-0.305093 -0.131266 0.0912667
3.46372 -0.45503 -2.7295
0.0 0.0 0.0
0.0 0.0 0.0
0.0 0.0 0.0
0.0 0.0 0.0
0.0 0.0 0.0
0.0 0.0 0.0
-0.0248154 0.0270889 -0.0244079
0.118889 -0.12081 0.23926
0.0 0.0 0.0
-1.6506 -0.228298 -0.131854
0.0 0.0 0.0
0.0 0.0 0.0
0.0 0.0 0.0
0.0 0.0 0.0
-3.47427 0.127804 0.595323
-1.51842 1.56188 0.555545
0.0 0.0 0.0
0.0 0.0 0.0
0.0 0.0 0.0
-1.31072 -0.961653 -3.32229
-7.27335 -7.11543 -5.73794
-7.9273 0.381409 -8.67289
3.85657 0.916036 -3.31775
-3.54216 -2.28824 -1.81675
0.0 0.0 0.0
0.0 0.0 0.0
0.0 0.0 0.0
-1.85408 -0.358903 0.295098
-1.27807 0.0997327 -3.12299
-12.8176 0.297452 0.522359
-2.38652 -0.430434 -0.0341737
0.0 0.0 0.0
-0.359214 -0.744328 -0.406327
-1.59089 -1.87989 2.41781
0.914757 0.93164 1.67105
0.0 0.0 0.0
0.0 0.0 0.0
-1.79091 6.16245 -6.22626
0.0 0.0 0.0
-1.69043 2.2197 -7.68278
-0.498997 2.26781 -2.88067
0.0 0.0 0.0
0.0 0.0 0.0
-1.52123 2.63098 -2.09307
-4.73989 -5.24885 -1.90225
-2.52717 1.20166 -1.11454
0.0 0.0 0.0
1.45552 7.42665 -9.22485
-1.14257 -2.71721 2.55435
-0.00880153 -0.515125 0.515125
-1.20786 -3.36269 -0.278417
-0.110145 -1.63729 1.63729
0.0 0.0 0.0
0.0 0.0 0.0
-0.0797292 -1.36303 1.34378
-0.0556605 -0.851559 0.85156
0.0 0.0 0.0
0.0 0.0 0.0
-2.314 -5.93122 2.15506
-0.152659 -2.38506 2.38506
2.02819 -4.14681 5.47581
-1.00776 -11.4192 -2.30142
2.46796 0.872582 -0.2013
0.0 -6.90546 0.0
0.602925 -4.91305 0.832899
-2.52743 -8.50849 2.56956
0.185496 -1.78944 0.0417181
0.729587 -1.8704 4.18776
-2.16302 2.30971 4.82819
-1.51126 -0.442839 1.25502
1.58347 -3.39426 0.842054
0.802842 1.84259 -0.246077
1.3451 -0.735517 0.417993
-0.41224 -4.80182 -1.03239
-2.24062 1.35696 -1.32492
-9.25018 5.24438 -0.746896
-0.58839 -2.49996 -0.578992
2.52137 -4.18489 1.15838
0.905054 -0.365241 0.0276299
0.362586 -7.40979 1.59239
2.282 -1.80476 0.326316
2.09348 2.5699 2.08231
0.636741 -8.0185 0.604054
-3.90289 -9.84093 0.152431
1.29827 -1.28185 0.0344172
-1.53324 1.12557 -0.217928
-0.0654078 2.28132 -2.00457
0.516275 -8.22171 -0.66871
4.54685 -6.79555 0.141884
-0.797478 0.933768 -0.550685
-0.0622242 -7.88198 -1.40027
0.172064 -7.07472 -0.116683
0.918518 1.2131 -1.23225
0.599091 -4.93942 0.153787
-0.126491 2.8067 4.99459
1.68333 -5.10098 0.495627
0.596249 0.765214 1.63968
-1.21661 0.701012 -0.830541
0.0 -6.90472 0.0
-0.956513 -1.96776 0.211455
-1.75769 -9.19601 0.27318
3.24762 -6.56812 -1.28368
-0.644283 0.264255 -1.36685
0.662196 -6.10535 -0.417191
-2.62848 1.44453 -0.588654
-0.137265 -2.05395 -0.190668
0.676123 -7.05596 0.27904
-0.111494 -5.37416 0.00226679
-1.80211 -6.12381 0.128766
-1.75466 0.585444 1.11051
1.84108 -8.91046 2.38191
0.0 -6.90677 0.0
-1.26134 2.35987 -2.02939
-1.72021 -2.11593 1.54866
-0.572983 -7.23545 0.0295544
-1.4647 -11.3662 -5.1904
1.29827 -8.18803 0.0344172
-2.21157 2.08304 -0.660009
-1.53123 -1.12575 0.880546
-2.2155 1.2027 -0.328518
0.325025 -9.56157 -2.07949
4.2019 -5.67882 2.46578
-2.6219 -0.634443 -5.54555
-7.18913 0.434674 2.68434
3.52012 -0.317172 -9.4116
0.24324 1.25006 0.829568
-10.08 -8.53514 8.95598
-1.96161 -7.235 7.29877
0.597302 0.338248 2.48678
-1.79623 -6.55407 2.00544
-1.81092 -5.78791 2.12826
-0.338549 0.270516 -1.15171
-0.117253 -0.414791 -2.16373
-5.57336 -3.71039 2.6504
-0.509072 -13.794 13.794
-2.48222 -3.66049 4.33796
-1.00602 -3.49841 3.66161
-8.76984 -2.33544 6.15085
-2.89868 -6.26048 2.97898
-3.1646 -8.00151 7.80757
-2.59 -7.1605 6.66555
-0.279055 -11.321 11.321
-2.45103 -15.0019 14.5756
-31.396 -13.4047 10.7087
-19.7457 -13.545 13.5895
22.0624 -17.5477 15.4861
VECTORS v float
0.361575 -4.81371 -5.45116
0.493015 5.33836 6.68124
0.557299 -2.10077 -8.64488
0.465621 -1.96353 -8.90267
-0.370463 -2.43247 -7.30556
2.2033 -5.88025 -6.06076
-0.225173 -2.07327 -4.15464
-1.35038 -3.97762 -5.12895
1.26229 -3.27104 -4.24834
0.552276 -2.18097 -5.49439
0.813753 -0.313429 -4.49529
-2.02718 -0.929817 -4.07407
-1.88816 -3.08049 -3.9154
-2.18791 -1.20753 -4.05336
-0.258202 -1.26657 -4.15438
1.64629 -0.0565034 -3.84971
1.35282 0.103274 -3.25595
0.0 0.0 -2.19427
0.0 0.0 -2.08047
-0.0611335 -0.165505 -2.2536
0.278471 -1.2399 -2.51997
0.0 0.0 -2.14192
-0.188365 -0.834088 -3.16872
0.0 0.0 -2.15521
-0.534919 -1.35323 -4.18385
0.0 0.0 -1.9643
0.0 0.0 -1.94872
0.0 0.0 -2.01344
0.0 0.0 -1.89569
0.0 0.0 -1.95193
-0.620915 -0.701467 -1.70224
0.0 0.0 -2.03398
0.0 0.0 -2.0151
0.0 0.0 -2.02086
0.0 0.0 -1.73607
0.0 0.0 -1.81104
0.0 0.0 -1.93718
-0.543534 -0.650405 -1.24121
0.367722 -0.833193 -2.38077
0.0 0.0 -1.9012
0.0 0.0 -1.91676
-0.233055 -0.502081 -1.35046
0.00630094 -0.935161 -2.46821
0.0 0.0 -2.01706
0.0 0.0 -1.74019
-0.288382 -7.66269 -5.83551
0.00237506 -0.0177711 -1.98191
0.963521 -1.2131 -2.01087
0.0 0.0 -1.94584
-0.0987771 -0.0659908 -2.00638
-4.47569 -2.3618 -2.21979
0.245832 -1.30771 -2.51341
2.95087 -2.76862 -5.75398
-0.756593 -5.3529 -7.79491
0.0 0.0 -1.96565
-3.66371 -4.48757 -6.30652
-2.52602 -2.97775 -7.4555
-0.660009 -4.45665 -8.7247
0.709437 -2.30179 -5.49379
0.0 0.0 -1.89277
0.0 0.0 -1.27345
0.0 0.0 -1.42619
0.305502 -1.37611 -1.50562
0.0 0.0 -1.3202
0.0 0.0 -1.58713
0.126015 -0.0369753 -1.26307
0.0 0.0 -1.38033
0.0 0.0 -1.70437
0.0 0.0 -1.35303
0.0 0.0 -1.47486
0.0 0.0 -1.64873
0.0 0.0 -1.28438
0.025527 -1.04388 -1.26157
0.0 0.0 -1.57123
0.0 0.0 -1.45315
0.0 0.0 -1.66539
-0.561899 -0.927441 -1.1013
-0.621767 -0.209424 -1.9707
0.0 0.0 -1.49568
0.0 0.0 -1.62709
0.649563 -0.743942 -1.51174
1.36041 -0.62356 -2.80001
0.0 0.0 -1.37601
0.0 0.0 -1.56086
0.0 0.0 -1.42388
3.00771 -3.35816 -4.02913
0.370308 -0.721073 -5.0228
0.884063 0.586468 -4.16547
0.622576 -0.231573 -1.32185
3.03298 -1.19582 -1.74282
-1.68035 -2.98069 -3.66266
-0.915448 -1.07598 -2.87555
2.594 -1.84322 -3.08154
0.0 0.0 -1.27006
-0.179917 -0.130748 -1.44523
-0.41575 0.433409 -1.36103
0.114894 0.0 0.956229
0.0779249 0.260225 0.161847
0.391541 1.2633 -0.811614
0.155461 -0.2461 1.00338
0.0342115 -0.182823 0.272558
0.598676 0.206897 0.496185
0.233446 0.00737283 1.04643
0.0 0.0 -0.919679
0.0 0.0 -0.758833
0.0 0.0 -0.435514
0.0 0.0 -1.15083
0.0 0.0 -0.375946
0.0 0.0 -0.481443
0.0 0.0 -1.06721
0.0 0.0 -0.772021
0.0 0.0 -0.480064
0.0 0.0 -0.943011
0.0 0.0 -0.373385
0.0 0.0 -1.19306
0.0706021 -0.146205 -0.623807
0.0 0.0 -0.961186
0.0 0.0 -0.445856
0.0 0.0 -0.511656
0.0 0.0 -1.22627
0.0 0.0 -0.931477
0.0 0.0 -0.987431
0.0 0.0 -0.71642
0.0 0.0 -0.947346
0.0 0.0 -0.610561
0.0 0.0 -0.613452
0.0 0.0 -0.917516
-0.0304219 -0.028043 -0.637217
-0.423214 -1.3881 -0.62229
0.0 0.0 -0.796573
0.0 0.0 -1.10359
0.0 0.0 -1.09758
0.0 0.0 -1.0533
0.0 0.0 -0.345845
0.0 0.0 -1.18547
-0.0115509 -0.00422569 -0.826401
-0.0492368 -0.0798208 -0.971606
0.0 0.0 -0.562838
0.0558642 -0.038255 -0.782
0.0 0.0 -0.547921
0.0 0.0 -0.711488
0.0 0.0 -0.526273
0.0 0.0 -1.22965
-0.0195898 -3.03286 -0.19579
-0.453773 -0.525922 -1.03391
0.0 0.0 -0.714846
0.0 0.0 -0.594075
0.0 0.0 -0.608644
-1.04134 -0.44592 -0.610588
1.97326 -3.38972 0.845868
1.19211 -1.25999 -0.75943
0.251017 -1.71548 -0.720498
0.687994 -1.39458 -0.087561
0.0 0.0 -0.712586
0.0 0.0 -0.915678
0.0 0.0 -0.659425
0.149991 -0.515641 -0.236447
-0.355266 -1.05813 -0.957575
-0.0475609 -0.291235 -1.36825
0.103703 -0.661795 -0.226304
0.0 0.0 -1.15811
0.228788 -0.166366 -0.874804
0.805589 -0.804375 -0.914722
0.61555 -0.250609 -1.00317
0.0 0.0 -0.626168
0.0 0.0 -0.556206
0.0174654 -1.71015 -2.93708
0.0 0.0 -0.456125
1.42636 -0.741666 -1.65559
-0.147777 -0.892402 -1.48385
0.0 0.0 -0.478738
0.0 0.0 -0.704931
-0.694128 -0.765187 -1.92553
0.734846 0.155477 -0.662421
-0.451995 -0.728163 -0.523863
0.0 0.0 -0.379704
0.29945 -1.1353 -2.13
1.22681 -0.349853 -0.725688
0.0116942 0.165109 -0.259688
0.0830215 0.292407 -0.0800553
0.0376503 0.531791 -0.170675
0.0 0.0 -0.318398
0.0 0.0 -0.328943
0.0313795 0.43063 -0.0929656
0.0195377 0.275962 -0.39444
0.0 0.0 -0.330031
0.0 0.0 -0.941113
-0.27899 -0.107659 -0.100362
0.0553507 0.779414 -0.769513
0.223052 0.715464 -0.601847
0.244548 0.683116 -0.0980328
0.583502 -0.422767 -0.158089
0.114881 0.0 0.387282
-0.412558 0.323649 0.155777
-0.0204725 0.328219 0.379387
-0.450778 -0.0601054 -1.06777
-0.312725 0.156001 -0.108249
0.4748 -0.320867 -0.754614
0.017834 0.597729 -0.293577
-0.0540384 0.0858068 -0.706876
0.534761 -0.187764 -0.938451
-0.273022 -0.363492 -0.51285
0.00939137 0.427178 0.380399
0.137084 0.776549 -0.365954
0.502788 0.995937 0.796217
-0.154204 0.280167 -0.831408
-0.631696 -0.256486 -0.941393
-0.136475 -0.359824 -1.03169
-0.306658 0.0725651 0.593373
-0.0109292 0.26813 -0.151641
0.924371 0.201231 -0.631849
0.491351 -0.156012 0.224511
0.452608 -0.203157 -0.3481
-0.346934 -0.34214 -0.680068
0.401202 0.50224 -1.08673
0.071736 0.452217 0.227655
0.621104 0.381396 0.0175896
0.468901 0.659626 -0.0648069
0.179525 0.126957 -0.292534
0.540337 0.0321651 -0.115134
0.221897 0.132025 0.231331
0.311471 0.779 -0.81955
-0.18268 -0.0102654 -0.532943
0.508948 0.782228 0.000358679
-0.265263 0.505048 0.0735719
0.144439 0.271428 0.265628
-0.024292 0.386583 -0.207995
0.114868 0.0 0.262788
-0.45181 0.272742 0.143836
0.369778 -0.0577969 0.320986
-0.156669 0.925678 0.0669339
0.125606 0.0912568 -0.206619
-0.139659 0.241724 -0.21365
0.469459 0.88026 -0.813233
0.197906 0.376195 -0.307241
0.163202 0.292701 0.453169
-0.352081 -0.0337649 0.212065
-0.372378 -0.400311 0.415614
0.0560702 0.654452 0.0603045
-0.0124708 -0.0432524 -0.39514
0.1149 0.0 0.923063